#INFO: **** input file is /blue/bartlett/z.windom/MOLSSI_develop/test/build_T2_interfaces/RECORDS/verify_spin_CCD/pyscfCode/N2_equil_UHF/run_pyscf.py ****
import numpy as np
import pyscf
from pyscf import ao2mo


def main():
    """ Initialize calculation details, 2e- integrals, Fock matrix, etc """

    # run pyscf for some reason
    basis = 'ccpvdz'
    mol = pyscf.M(
        atom='N 0 0 0; N 0 0 {}'.format(9.000), #2.0749193),
        #atom='Be 0 0 0'
        verbose=5,
        unit='b',
        basis=basis)



    mf = mol.UHF()
    mf.run()

    from pyscf.lib import logger

    def stable_opt_internal(mf):
        log = logger.new_logger(mf)
        mo1, _, stable, _ = mf.stability(return_status=True)
        cyc = 0
        while (not stable and cyc < 10):
            log.note('Try to optimize orbitals until stable, attempt %d' % cyc)
            dm1 = mf.make_rdm1(mo1, mf.mo_occ)
            mf = mf.run(dm1)
            mo1, _, stable, _ = mf.stability(return_status=True)
            cyc += 1
        if not stable:
            log.note('Stability Opt failed after %d attempts' % cyc)
        return mf
    print('loop example')
    mf = stable_opt_internal(mf)

    orb=mf.mo_coeff
    print(np.shape(mf.get_hcore()))
    print(np.shape(orb))
    import run_ccd as run_ccd 
 
    run_ccd.ccd_main(mf,mol,orb)


main()
#INFO: ******************** input file end ********************


System: uname_result(system='Linux', node='login2.ufhpc', release='3.10.0-1160.80.1.el7.x86_64', version='#1 SMP Sat Oct 8 18:13:21 UTC 2022', machine='x86_64', processor='x86_64')  Threads 32
Python 3.7.12 | packaged by conda-forge | (default, Oct 26 2021, 06:08:21) 
[GCC 9.4.0]
numpy 1.21.6  scipy 1.7.3
Date: Sat Jan 28 00:44:25 2023
PySCF version 2.1.1
PySCF path  /blue/bartlett/z.windom/MOLSSI_develop/T2method/new/pyscf
GIT ORIG_HEAD 41535e74b1de6eb21fc9b6a13c089d6cd55b35d7
GIT HEAD (branch master) ff882f83f5730ea5610d52cc5b88d278f9b71da7

[ENV] PYSCF_INC_DIR /home/z.windom/libxc-4.3.4
[CONFIG] conf_file /home/z.windom/.pyscf_conf.py
[INPUT] verbose = 5
[INPUT] max_memory = 4000 
[INPUT] num. atoms = 2
[INPUT] num. electrons = 14
[INPUT] charge = 0
[INPUT] spin (= nelec alpha-beta = 2S) = 0
[INPUT] symmetry False subgroup None
[INPUT] Mole.unit = b
[INPUT] Symbol           X                Y                Z      unit          X                Y                Z       unit  Magmom
[INPUT]  1 N      0.000000000000   0.000000000000   0.000000000000 AA    0.000000000000   0.000000000000   0.000000000000 Bohr   0.0
[INPUT]  2 N      0.000000000000   0.000000000000   4.762594898280 AA    0.000000000000   0.000000000000   9.000000000000 Bohr   0.0
[INPUT] ---------------- BASIS SET ---------------- 
[INPUT] l, kappa, [nprim/nctr], expnt,             c_1 c_2 ...
[INPUT] N
[INPUT] 0    0    [8    /2   ]  9046              0.0007 -0.000153
                                1357              0.005389 -0.001208
                                309.3             0.027406 -0.005992
                                87.73             0.103207 -0.024544
                                28.56             0.278723 -0.067459
                                10.21             0.44854 -0.158078
                                3.838             0.278238 -0.121831
                                0.7466            0.01544 0.549003
[INPUT] 0    0    [1    /1   ]  0.2248               1
[INPUT] 1    0    [3    /1   ]  13.55             0.039919
                                2.917             0.217169
                                0.7973            0.510319
[INPUT] 1    0    [1    /1   ]  0.2185               1
[INPUT] 2    0    [1    /1   ]  0.817                1

nuclear repulsion = 5.44444444444444
number of shells = 10
number of NR pGTOs = 52
number of NR cGTOs = 28
basis = ccpvdz
ecp = {}
CPU time:         2.40


******** <class 'pyscf.scf.uhf.UHF'> ********
method = UHF
initial guess = minao
damping factor = 0
level_shift factor = 0
DIIS = <class 'pyscf.scf.diis.CDIIS'>
diis_start_cycle = 1
diis_space = 8
SCF conv_tol = 1e-09
SCF conv_tol_grad = None
SCF max_cycles = 50
direct_scf = True
direct_scf_tol = 1e-13
chkfile to save SCF result = /blue/bartlett/z.windom/MOLSSI_develop/test/build_T2_interfaces/RECORDS/verify_spin_CCD/pyscfCode/N2_equil_UHF/tmp_mwdwtjc
max_memory 4000 MB (current use 85 MB)
number electrons alpha = 7  beta = 7
Set gradient conv threshold to 3.16228e-05
E1 = -159.30011596288625  Ecoul = 46.293161182441054
init E= -107.562510336001
cond(S) = 9.227651591459802
    CPU time for initialize scf      0.85 sec, wall time      0.06 sec

WARN: alpha nocc = 7  HOMO -0.160869691422633 >= LUMO -0.160693630085333


WARN: beta  nocc = 7  HOMO -0.160847510257888 >= LUMO -0.160715748350298


WARN: system HOMO -0.160847510257888 >= system LUMO -0.160715748350298

  alpha mo_energy =
[-15.55054596 -15.55054579  -0.9159054   -0.91563504  -0.16195864
  -0.16086969  -0.16086969  -0.16069363  -0.16069363  -0.15962533
   0.98322391   0.98819319   0.98819319   0.98889694   0.98889694
   0.99377406   1.06517313   1.06663937   2.07534321   2.07534874
   2.07534874   2.07535258   2.07535258   2.07535429   2.07535429
   2.07535472   2.07535472   2.07535521]
  beta  mo_energy =
[-15.55054589 -15.55054586  -0.91582395  -0.91571569  -0.16173333
  -0.16084751  -0.16084751  -0.16071575  -0.16071575  -0.15984675
   0.98319418   0.98819014   0.98819014   0.98890003   0.98890003
   0.99380314   1.06518377   1.06662908   2.07534904   2.0753494
   2.07535064   2.07535064   2.07535068   2.07535068   2.0753545
   2.0753545    2.0753545    2.0753545 ]
multiplicity <S^2> = 6.5198961e-08  2S+1 = 1.0000001
E1 = -156.9466627627501  Ecoul = 43.68678618756912
cycle= 1 E= -107.815432130737  delta_E= -0.253  |g|= 0.146  |ddm|=  1.2
    CPU time for cycle= 1      0.75 sec, wall time      0.03 sec
  alpha nocc = 7  HOMO = -0.316469209162438  LUMO = -0.206840098198496
  beta  nocc = 7  HOMO = -0.316473269292788  LUMO = -0.206844255650454
  alpha mo_energy =
[-15.88370408 -15.88368323  -1.03858789  -1.03506768  -0.31934409
  -0.31646921  -0.31646921  -0.2068401   -0.2068401   -0.20339065
   0.8958683    0.90085591   0.90085591   0.90178511   0.90178511
   0.9070364    0.97893842   0.98211158   1.97093057   1.97102672
   1.97102672   1.97125485   1.97125485   1.97212242   1.97212242
   1.97237191   1.97237191   1.9724808 ]
  beta  mo_energy =
[-15.88370909 -15.88368823  -1.03859487  -1.03507631  -0.31936578
  -0.31647327  -0.31647327  -0.20684426  -0.20684426  -0.20342025
   0.89585089   0.90085341   0.90085341   0.90178238   0.90178238
   0.90701911   0.97894009   0.98210952   1.9709264    1.97102321
   1.97102321   1.97125372   1.97125372   1.97212128   1.97212128
   1.9723682    1.9723682    1.97247608]
multiplicity <S^2> = 1.4279902e-08  2S+1 = 1
E1 = -157.83197957567168  Ecoul = 44.56233959835622
cycle= 2 E= -107.825195532871  delta_E= -0.00976  |g|= 0.0414  |ddm|= 0.186
    CPU time for cycle= 2      0.47 sec, wall time      0.02 sec
  alpha nocc = 7  HOMO = -0.286912185696444  LUMO = -0.177120018937376
  beta  nocc = 7  HOMO = -0.28691447238185  LUMO = -0.17712227521526
  alpha mo_energy =
[-15.78981154 -15.7897892   -1.00788722  -1.00433129  -0.28981427
  -0.28691219  -0.28691219  -0.17712002  -0.17712002  -0.17347529
   0.92220576   0.92695187   0.92695187   0.92780608   0.92780608
   0.93308521   1.00049026   1.003509     2.00088739   2.00098876
   2.00098876   2.00122764   2.00122764   2.00209024   2.00209024
   2.00234062   2.00234062   2.00245093]
  beta  mo_energy =
[-15.78981458 -15.78979224  -1.00789194  -1.00433705  -0.28982378
  -0.28691447  -0.28691447  -0.17712228  -0.17712228  -0.17348999
   0.92219514   0.92694995   0.92694995   0.92780409   0.92780409
   0.93307576   1.00049038   1.00350692   2.00088524   2.00098696
   2.00098696   2.00122704   2.00122704   2.00208964   2.00208964
   2.00233874   2.00233874   2.00244857]
multiplicity <S^2> = 6.6442292e-09  2S+1 = 1
E1 = -157.6231241629469  Ecoul = 44.35247330443314
cycle= 3 E= -107.826206414069  delta_E= -0.00101  |g|= 0.00403  |ddm|= 0.0423
    CPU time for cycle= 3      0.38 sec, wall time      0.02 sec
  alpha nocc = 7  HOMO = -0.286825052717068  LUMO = -0.176987256440499
  beta  nocc = 7  HOMO = -0.286825859088353  LUMO = -0.176987971850072
  alpha mo_energy =
[-15.79003518 -15.79001298  -1.00910881  -1.00549108  -0.28972463
  -0.28682505  -0.28682505  -0.17698726  -0.17698726  -0.17317238
   0.92239957   0.92708744   0.92708744   0.92790947   0.92790947
   0.93327303   0.99966918   1.00271029   2.0008099    2.00091497
   2.00091497   2.00116104   2.00116104   2.00202467   2.00202467
   2.00227826   2.00227826   2.00239092]
  beta  mo_energy =
[-15.79003609 -15.79001388  -1.00911073  -1.00549339  -0.28972522
  -0.28682586  -0.28682586  -0.17698797  -0.17698797  -0.17317496
   0.92239757   0.92708668   0.92708668   0.9279087    0.9279087
   0.93327197   0.99966879   1.00270905   2.00080952   2.00091464
   2.00091464   2.00116085   2.00116085   2.00202449   2.00202449
   2.00227795   2.00227795   2.00239056]
multiplicity <S^2> = 1.5285631e-09  2S+1 = 1
E1 = -157.62510122642448  Ecoul = 44.35443744240702
cycle= 4 E= -107.826219339573  delta_E= -1.29e-05  |g|= 0.000264  |ddm|= 0.00665
    CPU time for cycle= 4      0.26 sec, wall time      0.01 sec
  alpha nocc = 7  HOMO = -0.286832572395854  LUMO = -0.177005191407393
  beta  nocc = 7  HOMO = -0.286832895033737  LUMO = -0.177005478212913
  alpha mo_energy =
[-15.79006529 -15.7900431   -1.00906677  -1.00544113  -0.28973733
  -0.28683257  -0.28683257  -0.17700519  -0.17700519  -0.17318615
   0.92234282   0.92702738   0.92702738   0.92786076   0.92786076
   0.93323054   0.99964294   1.0026807    2.0007778    2.00088301
   2.00088301   2.00112945   2.00112945   2.00199298   2.00199298
   2.00224619   2.00224619   2.0023587 ]
  beta  mo_energy =
[-15.79006556 -15.79004336  -1.00906726  -1.00544181  -0.28973708
  -0.2868329   -0.2868329   -0.17700548  -0.17700548  -0.17318698
   0.92234236   0.92702712   0.92702712   0.92786049   0.92786049
   0.9332305    0.99964294   1.00268023   2.00077773   2.00088294
   2.00088294   2.00112936   2.00112936   2.0019929    2.0019929
   2.00224612   2.00224612   2.00235863]
multiplicity <S^2> = 4.2198778e-10  2S+1 = 1
E1 = -157.62521865779092  Ecoul = 44.35455481767196
cycle= 5 E= -107.826219395675  delta_E= -5.61e-08  |g|= 3e-05  |ddm|= 0.000341
    CPU time for cycle= 5      0.28 sec, wall time      0.01 sec
  alpha nocc = 7  HOMO = -0.286839294066549  LUMO = -0.177009278978204
  beta  nocc = 7  HOMO = -0.286839448828689  LUMO = -0.177009411464728
  alpha mo_energy =
[-15.79007518 -15.7900524   -1.00906782  -1.00544276  -0.28974377
  -0.28683929  -0.28683929  -0.17700928  -0.17700928  -0.17318929
   0.92234957   0.92703395   0.92703395   0.92786502   0.92786502
   0.93323405   0.99965576   1.00269457   2.00078004   2.00088529
   2.00088529   2.00113182   2.00113182   2.00199539   2.00199539
   2.00224877   2.00224877   2.00236136]
  beta  mo_energy =
[-15.79007529 -15.79005251  -1.00906801  -1.00544308  -0.28974352
  -0.28683945  -0.28683945  -0.17700941  -0.17700941  -0.17318971
   0.92234935   0.92703383   0.92703383   0.9278649    0.9278649
   0.93323409   0.9996558    1.00269433   2.00078003   2.00088527
   2.00088527   2.00113178   2.00113178   2.00199534   2.00199534
   2.00224875   2.00224875   2.00236134]
multiplicity <S^2> = 1.6226487e-10  2S+1 = 1
E1 = -157.62519820176692  Ecoul = 44.35453436279313
cycle= 6 E= -107.826219394529  delta_E= 1.15e-09  |g|= 7.29e-05  |ddm|= 5.06e-05
    CPU time for cycle= 6      0.22 sec, wall time      0.01 sec
  alpha nocc = 7  HOMO = -0.286839355519482  LUMO = -0.177009318525035
  beta  nocc = 7  HOMO = -0.286839504687268  LUMO = -0.17700944598362
  alpha mo_energy =
[-15.79007503 -15.7900527   -1.00906786  -1.0054428   -0.28974384
  -0.28683936  -0.28683936  -0.17700932  -0.17700932  -0.17318933
   0.92234961   0.927034     0.927034     0.92786505   0.92786505
   0.93323407   0.99965585   1.00269466   2.00078006   2.00088531
   2.00088531   2.00113184   2.00113184   2.0019954    2.0019954
   2.00224879   2.00224879   2.00236137]
  beta  mo_energy =
[-15.79007513 -15.7900528   -1.00906804  -1.0054431   -0.28974359
  -0.2868395   -0.2868395   -0.17700945  -0.17700945  -0.17318973
   0.92234939   0.92703389   0.92703389   0.92786494   0.92786494
   0.93323412   0.9996559    1.00269442   2.00078004   2.00088528
   2.00088528   2.00113179   2.00113179   2.00199535   2.00199535
   2.00224876   2.00224876   2.00236135]
multiplicity <S^2> = 1.5389912e-10  2S+1 = 1
E1 = -157.6251980085675  Ecoul = 44.35453416814782
cycle= 7 E= -107.826219395975  delta_E= -1.45e-09  |g|= 3.53e-05  |ddm|= 3.84e-05
    CPU time for cycle= 7      0.23 sec, wall time      0.01 sec
  alpha nocc = 7  HOMO = -0.286840100221776  LUMO = -0.177009805150336
  beta  nocc = 7  HOMO = -0.286840168757396  LUMO = -0.177009860301827
  alpha mo_energy =
[-15.79007583 -15.79005364  -1.00906836  -1.00544327  -0.28974466
  -0.2868401   -0.2868401   -0.17700981  -0.17700981  -0.17318986
   0.92235      0.9270346    0.9270346    0.92786541   0.92786541
   0.93323437   0.99965698   1.00269564   2.00078019   2.00088543
   2.00088543   2.00113196   2.00113196   2.00199551   2.00199551
   2.00224891   2.00224891   2.0023615 ]
  beta  mo_energy =
[-15.79007587 -15.79005368  -1.00906843  -1.00544342  -0.28974448
  -0.28684017  -0.28684017  -0.17700986  -0.17700986  -0.17319008
   0.92234989   0.92703456   0.92703456   0.92786536   0.92786536
   0.93323442   0.99965703   1.00269552   2.00078018   2.00088542
   2.00088542   2.00113193   2.00113193   2.00199549   2.00199549
   2.0022489    2.0022489    2.00236149]
multiplicity <S^2> = 5.6646243e-11  2S+1 = 1
E1 = -157.6251956736411  Ecoul = 44.35453183276492
cycle= 8 E= -107.826219396432  delta_E= -4.56e-10  |g|= 1.99e-06  |ddm|= 1.35e-05
    CPU time for cycle= 8      0.22 sec, wall time      0.01 sec
  alpha nocc = 7  HOMO = -0.286840078779582  LUMO = -0.177009823196325
  beta  nocc = 7  HOMO = -0.286840115583885  LUMO = -0.177009851389568
  alpha mo_energy =
[-15.7900759  -15.79005371  -1.00906832  -1.00544323  -0.28974463
  -0.28684008  -0.28684008  -0.17700982  -0.17700982  -0.17318996
   0.92234978   0.92703442   0.92703442   0.92786527   0.92786527
   0.93323422   0.9996568    1.00269543   2.00078008   2.00088533
   2.00088533   2.00113185   2.00113185   2.00199541   2.00199541
   2.00224881   2.00224881   2.00236139]
  beta  mo_energy =
[-15.79007592 -15.79005373  -1.00906835  -1.00544331  -0.28974451
  -0.28684012  -0.28684012  -0.17700985  -0.17700985  -0.17319009
   0.92234972   0.9270344    0.9270344    0.92786524   0.92786524
   0.93323426   0.99965684   1.00269535   2.00078008   2.00088533
   2.00088533   2.00113184   2.00113184   2.0019954    2.0019954
   2.0022488    2.0022488    2.00236139]
multiplicity <S^2> = 2.8628655e-11  2S+1 = 1
E1 = -157.62519628200533  Ecoul = 44.354532441122316
Extra cycle  E= -107.826219396439  delta_E= -6.85e-12  |g|= 1.8e-06  |ddm|= 2.5e-06
    CPU time for scf_cycle      3.87 sec, wall time      0.18 sec
    CPU time for SCF      3.87 sec, wall time      0.18 sec
converged SCF energy = -107.826219396439  <S^2> = 2.8628655e-11  2S+1 = 1
loop example
davidson 0 1  |r|= 1.02  e= [-0.33641912]  max|de|= -0.336  lindep= 0.966
davidson 1 2  |r|= 0.403  e= [-0.99587996]  max|de|= -0.659  lindep= 0.997
davidson 2 3  |r|= 0.325  e= [-1.02133466]  max|de|= -0.0255  lindep= 0.984
davidson 3 4  |r|= 0.313  e= [-1.09086576]  max|de|= -0.0695  lindep= 0.86
davidson 4 5  |r|= 0.167  e= [-1.14910286]  max|de|= -0.0582  lindep= 0.981
davidson 5 6  |r|= 0.281  e= [-1.18251685]  max|de|= -0.0334  lindep= 0.883
davidson 6 7  |r|= 0.157  e= [-1.26384562]  max|de|= -0.0813  lindep= 0.95
davidson 7 8  |r|= 0.0224  e= [-1.26783262]  max|de|= -0.00399  lindep= 0.986
davidson 8 9  |r|= 0.00801  e= [-1.26798432]  max|de|= -0.000152  lindep= 0.928
davidson 9 10  |r|= 0.0101  e= [-1.26803671]  max|de|= -5.24e-05  lindep= 0.875
root 0 converged  |r|= 0.00302  e= -1.2680775229949142  max|de|= -4.08e-05
converged 10 11  |r|= 0.00302  e= [-1.26807752]  max|de|= -4.08e-05
<class 'pyscf.scf.uhf.UHF'> wavefunction has an internal instability.
Try to optimize orbitals until stable, attempt 0


******** <class 'pyscf.scf.uhf.UHF'> ********
method = UHF
initial guess = minao
damping factor = 0
level_shift factor = 0
DIIS = <class 'pyscf.scf.diis.CDIIS'>
diis_start_cycle = 1
diis_space = 8
SCF conv_tol = 1e-09
SCF conv_tol_grad = None
SCF max_cycles = 50
direct_scf = True
direct_scf_tol = 1e-13
chkfile to save SCF result = /blue/bartlett/z.windom/MOLSSI_develop/test/build_T2_interfaces/RECORDS/verify_spin_CCD/pyscfCode/N2_equil_UHF/tmp_mwdwtjc
max_memory 4000 MB (current use 95 MB)
number electrons alpha = 7  beta = 7
Set gradient conv threshold to 3.16228e-05
E1 = -158.0030730060675  Ecoul = 44.23193950896443
init E= -108.326689052659
cond(S) = 9.227651591459802
    CPU time for initialize scf      0.52 sec, wall time      0.02 sec
  alpha nocc = 7  HOMO = -0.480951390117765  LUMO = 0.0382414128405032
  beta  nocc = 7  HOMO = -0.480962341974394  LUMO = 0.0382552016528945
  alpha mo_energy =
[-15.76685934 -15.70445704  -1.14163261  -0.83315596  -0.49740581
  -0.49709843  -0.48095139   0.03824141   0.0514046    0.0516605
   0.87586363   0.87589475   0.87930691   0.97055624   1.01863641
   1.02199496   1.02203245   1.0609519    1.94001597   1.94001604
   1.9422084    1.94223319   1.94296195   2.09420579   2.09493137
   2.09495503   2.0971745    2.09717456]
  beta  mo_energy =
[-15.76687055 -15.70444454  -1.14163127  -0.83315576  -0.4974083
  -0.49708508  -0.48096234   0.0382552    0.05139031   0.05166083
   0.87586147   0.87589922   0.87930946   0.97055704   1.01863968
   1.02199215   1.02203104   1.06095154   1.94001916   1.94001924
   1.94220945   1.94223574   1.94296331   2.09420473   2.09492901
   2.0949541    2.09717098   2.09717105]
multiplicity <S^2> = 2.94109  2S+1 = 3.5727245
E1 = -158.67313870988573  Ecoul = 44.46928717320784
cycle= 1 E= -108.759407092233  delta_E= -0.433  |g|= 0.124  |ddm|= 0.711
    CPU time for cycle= 1      0.63 sec, wall time      0.02 sec
  alpha nocc = 7  HOMO = -0.559291284716107  LUMO = 0.157469205776923
  beta  nocc = 7  HOMO = -0.559293038289626  LUMO = 0.157471992668616
  alpha mo_energy =
[-15.68634    -15.60147321  -1.16089532  -0.74323812  -0.56261757
  -0.56257752  -0.55929128   0.15746921   0.15903818   0.15905185
   0.87822323   0.87824163   0.8794875    0.97946015   1.08203175
   1.08247797   1.08248249   1.10473037   1.94260317   1.94260318
   1.94300517   1.94300802   1.94314136   2.15292525   2.15306834
   2.153072     2.15350433   2.15350434]
  beta  mo_energy =
[-15.68634287 -15.60146998  -1.16089736  -0.74323521  -0.56262035
  -0.56257947  -0.55929304   0.15747199   0.15904024   0.1590541
   0.87822097   0.87823922   0.879486     0.97945752   1.08203439
   1.08248033   1.08248476   1.10473339   1.94260118   1.94260119
   1.9430023    1.94300608   1.94313881   2.15292788   2.15307075
   2.15307454   2.15350636   2.15350637]
multiplicity <S^2> = 3.0034973  2S+1 = 3.6074907
E1 = -158.77775672671885  Ecoul = 44.55211154420245
cycle= 2 E= -108.781200738072  delta_E= -0.0218  |g|= 0.0296  |ddm|= 0.16
    CPU time for cycle= 2      0.71 sec, wall time      0.02 sec
  alpha nocc = 7  HOMO = -0.563665857114554  LUMO = 0.167535043905174
  beta  nocc = 7  HOMO = -0.563667031993061  LUMO = 0.167536484352449
  alpha mo_energy =
[-15.67045348 -15.58105275  -1.15774727  -0.72817327  -0.56411658
  -0.56411006  -0.56366586   0.16753504   0.16753743   0.16759394
   0.87968655   0.87969286   0.87998458   0.98402894   1.09287871
   1.09288012   1.09298753   1.11494003   1.94666445   1.94666445
   1.94669172   1.94669219   1.94670123   2.1607436    2.16075745
   2.16075801   2.16080034   2.16080035]
  beta  mo_energy =
[-15.67045503 -15.58105109  -1.15774868  -0.7281716   -0.56411791
  -0.56411194  -0.56366703   0.16753648   0.16753903   0.16759542
   0.87968521   0.87969116   0.87998338   0.98402731   1.09288018
   1.09288168   1.09298904   1.11494177   1.94666298   1.94666299
   1.94669019   1.94669066   1.94669968   2.16074515   2.16075899
   2.16075954   2.16080182   2.16080182]
multiplicity <S^2> = 3.0070015  2S+1 = 3.6094329
E1 = -158.80031713688976  Ecoul = 44.573686550717525
cycle= 3 E= -108.782186141728  delta_E= -0.000985  |g|= 0.00674  |ddm|= 0.0461
    CPU time for cycle= 3      1.02 sec, wall time      0.04 sec
  alpha nocc = 7  HOMO = -0.563814829679144  LUMO = 0.166854327976142
  beta  nocc = 7  HOMO = -0.563815479255444  LUMO = 0.166855019958609
  alpha mo_energy =
[-15.67030863 -15.57935357  -1.15772042  -0.72557391  -0.56395182
  -0.56394995  -0.56381483   0.16685433   0.16694515   0.16694616
   0.87934681   0.87941267   0.8794131    0.9843131    1.09382552
   1.09382567   1.09396985   1.11702308   1.94699079   1.94699079
   1.94699911   1.94699914   1.94700187   2.16089853   2.16090217
   2.16090228   2.16091312   2.16091312]
  beta  mo_energy =
[-15.67030923 -15.57935296  -1.157721    -0.72557331  -0.56395243
  -0.56395052  -0.56381548   0.16685502   0.1669457    0.16694676
   0.87934622   0.87941208   0.87941251   0.98431246   1.0938261
   1.09382625   1.09397046   1.11702373   1.94699021   1.94699021
   1.9469985    1.94699853   1.94700125   2.16089914   2.16090277
   2.16090288   2.1609137    2.1609137 ]
multiplicity <S^2> = 3.007974  2S+1 = 3.6099718
E1 = -158.81086548124256  Ecoul = 44.58418978248305
cycle= 4 E= -108.782231254315  delta_E= -4.51e-05  |g|= 0.000684  |ddm|= 0.014
    CPU time for cycle= 4      0.39 sec, wall time      0.01 sec
  alpha nocc = 7  HOMO = -0.563883755605439  LUMO = 0.167709652446991
  beta  nocc = 7  HOMO = -0.563884133625723  LUMO = 0.167710024336049
  alpha mo_energy =
[-15.66886006 -15.57767064  -1.15755828  -0.72471371  -0.56389371
  -0.5638839   -0.56388376   0.16770965   0.16770981   0.16771352
   0.87957422   0.87967993   0.87967996   0.98454343   1.09459572
   1.09459575   1.09476957   1.1175672    1.94735877   1.94735946
   1.94735948   1.94736166   1.94736166   2.16153547   2.16153547
   2.16153676   2.16153678   2.16153722]
  beta  mo_energy =
[-15.66886045 -15.57767024  -1.15755866  -0.72471332  -0.56389409
  -0.56388429  -0.56388413   0.16771002   0.16771019   0.16771392
   0.87957383   0.87967956   0.87967958   0.98454303   1.09459609
   1.09459613   1.09476996   1.1175676    1.94735838   1.94735907
   1.94735909   1.94736128   1.94736128   2.16153584   2.16153584
   2.16153715   2.16153717   2.16153761]
multiplicity <S^2> = 3.0080612  2S+1 = 3.6100201
E1 = -158.81081504461224  Ecoul = 44.584138765736945
cycle= 5 E= -108.782231834431  delta_E= -5.8e-07  |g|= 0.000312  |ddm|= 0.00113
    CPU time for cycle= 5      0.20 sec, wall time      0.01 sec
  alpha nocc = 7  HOMO = -0.563930389009351  LUMO = 0.167590473375076
  beta  nocc = 7  HOMO = -0.563930479866149  LUMO = 0.16759056974261
  alpha mo_energy =
[-15.66917591 -15.57800045  -1.15766523  -0.72482164  -0.56393621
  -0.56393053  -0.56393039   0.16759047   0.1675979    0.16759792
   0.87951822   0.87962901   0.87962909   0.98446092   1.09446581
   1.09446582   1.09463893   1.11749668   1.94727783   1.94727783
   1.94727835   1.94727836   1.94727858   2.16142848   2.16142858
   2.16142859   2.16142896   2.16142896]
  beta  mo_energy =
[-15.66917598 -15.57800038  -1.15766532  -0.72482156  -0.56393631
  -0.56393061  -0.56393048   0.16759057   0.16759799   0.167598
   0.87951813   0.87962892   0.879629     0.98446083   1.09446589
   1.09446591   1.09463902   1.11749677   1.94727774   1.94727774
   1.94727827   1.94727827   1.94727849   2.16142857   2.16142866
   2.16142868   2.16142905   2.16142905]
multiplicity <S^2> = 3.0080688  2S+1 = 3.6100243
E1 = -158.81112987389906  Ecoul = 44.58445339299635
cycle= 6 E= -108.782232036458  delta_E= -2.02e-07  |g|= 0.000104  |ddm|= 0.000587
    CPU time for cycle= 6      0.28 sec, wall time      0.01 sec
  alpha nocc = 7  HOMO = -0.563883515260582  LUMO = 0.167588961475516
  beta  nocc = 7  HOMO = -0.563883522251908  LUMO = 0.167588969176263
  alpha mo_energy =
[-15.66910737 -15.57794684  -1.15761316  -0.72483713  -0.5638874
  -0.56388738  -0.56388352   0.16758896   0.16760015   0.16760019
   0.87954339   0.87964949   0.87964951   0.98449022   1.09447846
   1.09447847   1.09465028   1.11749095   1.9473049    1.9473049
   1.94730571   1.94730572   1.94730603   2.16144242   2.16144263
   2.16144263   2.16144333   2.16144333]
  beta  mo_energy =
[-15.66910738 -15.57794683  -1.15761317  -0.72483713  -0.5638874
  -0.56388738  -0.56388352   0.16758897   0.16760015   0.16760019
   0.87954338   0.87964949   0.87964951   0.98449021   1.09447846
   1.09447847   1.09465029   1.11749096   1.9473049    1.9473049
   1.94730571   1.94730571   1.94730603   2.16144243   2.16144263
   2.16144264   2.16144334   2.16144334]
multiplicity <S^2> = 3.0080563  2S+1 = 3.6100173
E1 = -158.81098267844231  Ecoul = 44.58430618065327
cycle= 7 E= -108.782232053345  delta_E= -1.69e-08  |g|= 1.16e-05  |ddm|= 0.000226
    CPU time for cycle= 7      0.20 sec, wall time      0.01 sec
  alpha nocc = 7  HOMO = -0.563898041306428  LUMO = 0.167604829873899
  beta  nocc = 7  HOMO = -0.563898042565395  LUMO = 0.167604830801415
  alpha mo_energy =
[-15.66910223 -15.57794064  -1.15761439  -0.72482771  -0.56389915
  -0.56389913  -0.56389804   0.16760483   0.16761237   0.16761238
   0.87954239   0.87964789   0.8796479    0.98449265   1.09448441
   1.09448441   1.09465701   1.1174952    1.94730348   1.94730348
   1.94730369   1.94730369   1.94730381   2.16144864   2.16144867
   2.16144867   2.16144886   2.16144886]
  beta  mo_energy =
[-15.66910223 -15.57794064  -1.1576144   -0.7248277   -0.56389915
  -0.56389913  -0.56389804   0.16760483   0.16761237   0.16761238
   0.87954239   0.87964789   0.8796479    0.98449265   1.09448441
   1.09448441   1.09465701   1.1174952    1.94730348   1.94730348
   1.94730369   1.94730369   1.94730381   2.16144864   2.16144867
   2.16144867   2.16144886   2.16144886]
multiplicity <S^2> = 3.0080556  2S+1 = 3.610017
E1 = -158.81099528807243  Ecoul = 44.584318790188945
cycle= 8 E= -108.782232053439  delta_E= -9.44e-11  |g|= 1.22e-06  |ddm|= 1.82e-05
    CPU time for cycle= 8      0.19 sec, wall time      0.01 sec
  alpha nocc = 7  HOMO = -0.56389546044749  LUMO = 0.167602067739921
  beta  nocc = 7  HOMO = -0.563895461506493  LUMO = 0.167602068766819
  alpha mo_energy =
[-15.66910322 -15.57794215  -1.15761359  -0.72482939  -0.56389753
  -0.56389752  -0.56389546   0.16760207   0.16761021   0.16761021
   0.87954265   0.87964787   0.87964787   0.98449268   1.09448332
   1.09448332   1.09465573   1.11749441   1.94730365   1.94730365
   1.94730395   1.94730395   1.94730411   2.1614475    2.16144756
   2.16144756   2.16144785   2.16144785]
  beta  mo_energy =
[-15.66910322 -15.57794215  -1.15761359  -0.72482939  -0.56389753
  -0.56389752  -0.56389546   0.16760207   0.16761021   0.16761021
   0.87954265   0.87964787   0.87964787   0.98449268   1.09448332
   1.09448332   1.09465573   1.11749441   1.94730365   1.94730365
   1.94730395   1.94730395   1.9473041    2.1614475    2.16144756
   2.16144756   2.16144785   2.16144785]
multiplicity <S^2> = 3.0080555  2S+1 = 3.6100169
E1 = -158.81099359123112  Ecoul = 44.58431709334635
Extra cycle  E= -108.78223205344  delta_E= -1.28e-12  |g|= 4.81e-07  |ddm|= 1.47e-06
    CPU time for scf_cycle      4.31 sec, wall time      0.15 sec
    CPU time for SCF      4.32 sec, wall time      0.15 sec
converged SCF energy = -108.78223205344  <S^2> = 3.0080555  2S+1 = 3.6100169
davidson 0 1  |r|= 2.29  e= [2.39636912]  max|de|=  2.4  lindep= 0.721
davidson 1 2  |r|= 1.29  e= [1.56763512]  max|de|= -0.829  lindep= 0.962
davidson 2 3  |r|= 0.554  e= [0.882783]  max|de|= -0.685  lindep= 0.757
davidson 3 4  |r|= 0.115  e= [0.68098398]  max|de|= -0.202  lindep= 0.989
davidson 4 5  |r|= 0.0327  e= [0.67619931]  max|de|= -0.00478  lindep= 0.925
davidson 5 6  |r|= 0.00804  e= [0.67582789]  max|de|= -0.000371  lindep= 0.993
root 0 converged  |r|= 0.00481  e= 0.6757937582075872  max|de|= -3.41e-05
converged 6 7  |r|= 0.00481  e= [0.67579376]  max|de|= -3.41e-05
<class 'pyscf.scf.uhf.UHF'> wavefunction is stable in the internal stability analysis
(28, 28)
(2, 28, 28)
mo energy: (28,)
total 2e- integral energy: 49.64634157120081
(28, 28, 28, 28)
final rhf/uhf energy: -108.78223205344034
slice(None, 7, None) slice(7, None, None)
eabij_aa: [[[[-0.03157222 -0.03166336 -0.05826854 ... -0.06035657 -0.06035657
    -0.06035658]
   [-0.03166336 -0.03175502 -0.0585797  ... -0.0606905  -0.0606905
    -0.06069051]
   [-0.05826854 -0.0585797  -0.37729708 ... -0.48621218 -0.48621218
    -0.48621267]
   ...
   [-0.06035657 -0.0606905  -0.48621218 ... -0.68352738 -0.68352738
    -0.68352834]
   [-0.06035657 -0.0606905  -0.48621218 ... -0.68352738 -0.68352738
    -0.68352835]
   [-0.06035658 -0.06069051 -0.48621267 ... -0.68352834 -0.68352835
    -0.68352931]]

  [[-0.03157222 -0.03166335 -0.05826851 ... -0.06035654 -0.06035654
    -0.06035655]
   [-0.03166335 -0.03175501 -0.05857967 ... -0.06069047 -0.06069047
    -0.06069048]
   [-0.05826851 -0.05857967 -0.37729592 ... -0.48621025 -0.48621025
    -0.48621074]
   ...
   [-0.06035654 -0.06069047 -0.48621025 ... -0.68352358 -0.68352358
    -0.68352454]
   [-0.06035654 -0.06069047 -0.48621025 ... -0.68352358 -0.68352358
    -0.68352454]
   [-0.06035655 -0.06069048 -0.48621074 ... -0.68352454 -0.68352454
    -0.68352551]]

  [[-0.03157222 -0.03166335 -0.05826851 ... -0.06035654 -0.06035654
    -0.06035655]
   [-0.03166335 -0.03175501 -0.05857967 ... -0.06069047 -0.06069047
    -0.06069048]
   [-0.05826851 -0.05857967 -0.37729592 ... -0.48621025 -0.48621025
    -0.48621074]
   ...
   [-0.06035654 -0.06069047 -0.48621025 ... -0.68352358 -0.68352358
    -0.68352454]
   [-0.06035654 -0.06069047 -0.48621025 ... -0.68352358 -0.68352358
    -0.68352454]
   [-0.06035655 -0.06069048 -0.48621074 ... -0.68352454 -0.68352454
    -0.68352551]]

  ...

  [[-0.02970245 -0.02978309 -0.0522036  ... -0.05387336 -0.05387336
    -0.05387336]
   [-0.02978309 -0.02986418 -0.05245322 ... -0.05413924 -0.05413924
    -0.05413925]
   [-0.0522036  -0.05245322 -0.21531878 ... -0.2468794  -0.2468794
    -0.24687952]
   ...
   [-0.05387336 -0.05413924 -0.2468794  ... -0.28928115 -0.28928115
    -0.28928132]
   [-0.05387336 -0.05413924 -0.2468794  ... -0.28928115 -0.28928115
    -0.28928132]
   [-0.05387336 -0.05413925 -0.24687952 ... -0.28928132 -0.28928132
    -0.28928149]]

  [[-0.02970245 -0.02978309 -0.0522036  ... -0.05387336 -0.05387336
    -0.05387336]
   [-0.02978309 -0.02986418 -0.05245322 ... -0.05413924 -0.05413924
    -0.05413925]
   [-0.0522036  -0.05245322 -0.21531876 ... -0.24687938 -0.24687938
    -0.24687951]
   ...
   [-0.05387336 -0.05413924 -0.24687938 ... -0.28928112 -0.28928113
    -0.2892813 ]
   [-0.05387336 -0.05413924 -0.24687938 ... -0.28928113 -0.28928113
    -0.2892813 ]
   [-0.05387336 -0.05413925 -0.24687951 ... -0.2892813  -0.2892813
    -0.28928147]]

  [[-0.02970245 -0.02978309 -0.0522036  ... -0.05387336 -0.05387336
    -0.05387336]
   [-0.02978309 -0.02986418 -0.05245322 ... -0.05413924 -0.05413924
    -0.05413925]
   [-0.0522036  -0.05245322 -0.21531876 ... -0.24687938 -0.24687938
    -0.24687951]
   ...
   [-0.05387336 -0.05413924 -0.24687938 ... -0.28928112 -0.28928113
    -0.2892813 ]
   [-0.05387336 -0.05413924 -0.24687938 ... -0.28928113 -0.28928113
    -0.2892813 ]
   [-0.05387336 -0.05413925 -0.24687951 ... -0.2892813  -0.2892813
    -0.28928147]]]


 [[[-0.03157222 -0.03166335 -0.05826851 ... -0.06035654 -0.06035654
    -0.06035655]
   [-0.03166335 -0.03175501 -0.05857967 ... -0.06069047 -0.06069047
    -0.06069048]
   [-0.05826851 -0.05857967 -0.37729592 ... -0.48621025 -0.48621025
    -0.48621074]
   ...
   [-0.06035654 -0.06069047 -0.48621025 ... -0.68352358 -0.68352358
    -0.68352454]
   [-0.06035654 -0.06069047 -0.48621025 ... -0.68352358 -0.68352358
    -0.68352454]
   [-0.06035655 -0.06069048 -0.48621074 ... -0.68352454 -0.68352454
    -0.68352551]]

  [[-0.03157221 -0.03166334 -0.05826848 ... -0.06035651 -0.06035651
    -0.06035652]
   [-0.03166334 -0.031755   -0.05857964 ... -0.06069044 -0.06069044
    -0.06069045]
   [-0.05826848 -0.05857964 -0.37729477 ... -0.48620833 -0.48620833
    -0.48620882]
   ...
   [-0.06035651 -0.06069044 -0.48620833 ... -0.68351977 -0.68351978
    -0.68352074]
   [-0.06035651 -0.06069044 -0.48620833 ... -0.68351978 -0.68351978
    -0.68352074]
   [-0.06035652 -0.06069045 -0.48620882 ... -0.68352074 -0.68352074
    -0.6835217 ]]

  [[-0.03157221 -0.03166334 -0.05826848 ... -0.06035651 -0.06035651
    -0.06035652]
   [-0.03166334 -0.031755   -0.05857964 ... -0.06069044 -0.06069044
    -0.06069045]
   [-0.05826848 -0.05857964 -0.37729477 ... -0.48620833 -0.48620833
    -0.48620882]
   ...
   [-0.06035651 -0.06069044 -0.48620833 ... -0.68351977 -0.68351978
    -0.68352074]
   [-0.06035651 -0.06069044 -0.48620833 ... -0.68351978 -0.68351978
    -0.68352074]
   [-0.06035652 -0.06069045 -0.48620882 ... -0.68352074 -0.68352074
    -0.6835217 ]]

  ...

  [[-0.02970244 -0.02978309 -0.05220358 ... -0.05387334 -0.05387334
    -0.05387334]
   [-0.02978309 -0.02986417 -0.0524532  ... -0.05413922 -0.05413922
    -0.05413923]
   [-0.05220358 -0.0524532  -0.2153184  ... -0.2468789  -0.2468789
    -0.24687903]
   ...
   [-0.05387334 -0.05413922 -0.2468789  ... -0.28928047 -0.28928047
    -0.28928064]
   [-0.05387334 -0.05413922 -0.2468789  ... -0.28928047 -0.28928047
    -0.28928064]
   [-0.05387334 -0.05413923 -0.24687903 ... -0.28928064 -0.28928064
    -0.28928081]]

  [[-0.02970244 -0.02978309 -0.05220358 ... -0.05387333 -0.05387333
    -0.05387334]
   [-0.02978309 -0.02986417 -0.0524532  ... -0.05413922 -0.05413922
    -0.05413923]
   [-0.05220358 -0.0524532  -0.21531839 ... -0.24687889 -0.24687889
    -0.24687901]
   ...
   [-0.05387333 -0.05413922 -0.24687889 ... -0.28928044 -0.28928044
    -0.28928062]
   [-0.05387333 -0.05413922 -0.24687889 ... -0.28928044 -0.28928044
    -0.28928062]
   [-0.05387334 -0.05413923 -0.24687901 ... -0.28928062 -0.28928062
    -0.28928079]]

  [[-0.02970244 -0.02978309 -0.05220358 ... -0.05387333 -0.05387333
    -0.05387334]
   [-0.02978309 -0.02986417 -0.0524532  ... -0.05413922 -0.05413922
    -0.05413923]
   [-0.05220358 -0.0524532  -0.21531839 ... -0.24687889 -0.24687889
    -0.24687901]
   ...
   [-0.05387333 -0.05413922 -0.24687889 ... -0.28928044 -0.28928044
    -0.28928062]
   [-0.05387333 -0.05413922 -0.24687889 ... -0.28928044 -0.28928044
    -0.28928062]
   [-0.05387334 -0.05413923 -0.24687901 ... -0.28928062 -0.28928062
    -0.28928079]]]


 [[[-0.03157222 -0.03166335 -0.05826851 ... -0.06035654 -0.06035654
    -0.06035655]
   [-0.03166335 -0.03175501 -0.05857967 ... -0.06069047 -0.06069047
    -0.06069048]
   [-0.05826851 -0.05857967 -0.37729592 ... -0.48621025 -0.48621025
    -0.48621074]
   ...
   [-0.06035654 -0.06069047 -0.48621025 ... -0.68352358 -0.68352358
    -0.68352454]
   [-0.06035654 -0.06069047 -0.48621025 ... -0.68352358 -0.68352358
    -0.68352454]
   [-0.06035655 -0.06069048 -0.48621074 ... -0.68352454 -0.68352454
    -0.68352551]]

  [[-0.03157221 -0.03166334 -0.05826848 ... -0.06035651 -0.06035651
    -0.06035652]
   [-0.03166334 -0.031755   -0.05857964 ... -0.06069044 -0.06069044
    -0.06069045]
   [-0.05826848 -0.05857964 -0.37729477 ... -0.48620833 -0.48620833
    -0.48620882]
   ...
   [-0.06035651 -0.06069044 -0.48620833 ... -0.68351977 -0.68351978
    -0.68352074]
   [-0.06035651 -0.06069044 -0.48620833 ... -0.68351978 -0.68351978
    -0.68352074]
   [-0.06035652 -0.06069045 -0.48620882 ... -0.68352074 -0.68352074
    -0.6835217 ]]

  [[-0.03157221 -0.03166334 -0.05826848 ... -0.06035651 -0.06035651
    -0.06035652]
   [-0.03166334 -0.031755   -0.05857964 ... -0.06069044 -0.06069044
    -0.06069045]
   [-0.05826848 -0.05857964 -0.37729477 ... -0.48620833 -0.48620833
    -0.48620882]
   ...
   [-0.06035651 -0.06069044 -0.48620833 ... -0.68351977 -0.68351978
    -0.68352074]
   [-0.06035651 -0.06069044 -0.48620833 ... -0.68351978 -0.68351978
    -0.68352074]
   [-0.06035652 -0.06069045 -0.48620882 ... -0.68352074 -0.68352074
    -0.6835217 ]]

  ...

  [[-0.02970244 -0.02978309 -0.05220358 ... -0.05387334 -0.05387334
    -0.05387334]
   [-0.02978309 -0.02986417 -0.0524532  ... -0.05413922 -0.05413922
    -0.05413923]
   [-0.05220358 -0.0524532  -0.2153184  ... -0.2468789  -0.2468789
    -0.24687903]
   ...
   [-0.05387334 -0.05413922 -0.2468789  ... -0.28928047 -0.28928047
    -0.28928064]
   [-0.05387334 -0.05413922 -0.2468789  ... -0.28928047 -0.28928047
    -0.28928064]
   [-0.05387334 -0.05413923 -0.24687903 ... -0.28928064 -0.28928064
    -0.28928081]]

  [[-0.02970244 -0.02978309 -0.05220358 ... -0.05387333 -0.05387333
    -0.05387334]
   [-0.02978309 -0.02986417 -0.0524532  ... -0.05413922 -0.05413922
    -0.05413923]
   [-0.05220358 -0.0524532  -0.21531839 ... -0.24687889 -0.24687889
    -0.24687901]
   ...
   [-0.05387333 -0.05413922 -0.24687889 ... -0.28928044 -0.28928044
    -0.28928062]
   [-0.05387333 -0.05413922 -0.24687889 ... -0.28928044 -0.28928044
    -0.28928062]
   [-0.05387334 -0.05413923 -0.24687901 ... -0.28928062 -0.28928062
    -0.28928079]]

  [[-0.02970244 -0.02978309 -0.05220358 ... -0.05387333 -0.05387333
    -0.05387334]
   [-0.02978309 -0.02986417 -0.0524532  ... -0.05413922 -0.05413922
    -0.05413923]
   [-0.05220358 -0.0524532  -0.21531839 ... -0.24687889 -0.24687889
    -0.24687901]
   ...
   [-0.05387333 -0.05413922 -0.24687889 ... -0.28928044 -0.28928044
    -0.28928062]
   [-0.05387333 -0.05413922 -0.24687889 ... -0.28928044 -0.28928044
    -0.28928062]
   [-0.05387334 -0.05413923 -0.24687901 ... -0.28928062 -0.28928062
    -0.28928079]]]


 ...


 [[[-0.02970245 -0.02978309 -0.0522036  ... -0.05387336 -0.05387336
    -0.05387336]
   [-0.02978309 -0.02986418 -0.05245322 ... -0.05413924 -0.05413924
    -0.05413925]
   [-0.0522036  -0.05245322 -0.21531878 ... -0.2468794  -0.2468794
    -0.24687952]
   ...
   [-0.05387336 -0.05413924 -0.2468794  ... -0.28928115 -0.28928115
    -0.28928132]
   [-0.05387336 -0.05413924 -0.2468794  ... -0.28928115 -0.28928115
    -0.28928132]
   [-0.05387336 -0.05413925 -0.24687952 ... -0.28928132 -0.28928132
    -0.28928149]]

  [[-0.02970244 -0.02978309 -0.05220358 ... -0.05387334 -0.05387334
    -0.05387334]
   [-0.02978309 -0.02986417 -0.0524532  ... -0.05413922 -0.05413922
    -0.05413923]
   [-0.05220358 -0.0524532  -0.2153184  ... -0.2468789  -0.2468789
    -0.24687903]
   ...
   [-0.05387334 -0.05413922 -0.2468789  ... -0.28928047 -0.28928047
    -0.28928064]
   [-0.05387334 -0.05413922 -0.2468789  ... -0.28928047 -0.28928047
    -0.28928064]
   [-0.05387334 -0.05413923 -0.24687903 ... -0.28928064 -0.28928064
    -0.28928081]]

  [[-0.02970244 -0.02978309 -0.05220358 ... -0.05387334 -0.05387334
    -0.05387334]
   [-0.02978309 -0.02986417 -0.0524532  ... -0.05413922 -0.05413922
    -0.05413923]
   [-0.05220358 -0.0524532  -0.2153184  ... -0.2468789  -0.2468789
    -0.24687903]
   ...
   [-0.05387334 -0.05413922 -0.2468789  ... -0.28928047 -0.28928047
    -0.28928064]
   [-0.05387334 -0.05413922 -0.2468789  ... -0.28928047 -0.28928047
    -0.28928064]
   [-0.05387334 -0.05413923 -0.24687903 ... -0.28928064 -0.28928064
    -0.28928081]]

  ...

  [[-0.02804176 -0.02811363 -0.04728219 ... -0.04864784 -0.04864784
    -0.04864785]
   [-0.02811363 -0.02818586 -0.04748687 ... -0.04886455 -0.04886455
    -0.04886455]
   [-0.04728219 -0.04748687 -0.15064501 ... -0.16544222 -0.16544222
    -0.16544228]
   ...
   [-0.04864784 -0.04886455 -0.16544222 ... -0.18346301 -0.18346301
    -0.18346307]
   [-0.04864784 -0.04886455 -0.16544222 ... -0.18346301 -0.18346301
    -0.18346307]
   [-0.04864785 -0.04886455 -0.16544228 ... -0.18346307 -0.18346307
    -0.18346314]]

  [[-0.02804176 -0.02811363 -0.04728219 ... -0.04864784 -0.04864784
    -0.04864785]
   [-0.02811363 -0.02818586 -0.04748687 ... -0.04886455 -0.04886455
    -0.04886455]
   [-0.04728219 -0.04748687 -0.150645   ... -0.16544221 -0.16544221
    -0.16544227]
   ...
   [-0.04864784 -0.04886455 -0.16544221 ... -0.183463   -0.183463
    -0.18346307]
   [-0.04864784 -0.04886455 -0.16544221 ... -0.183463   -0.183463
    -0.18346307]
   [-0.04864785 -0.04886455 -0.16544227 ... -0.18346307 -0.18346307
    -0.18346313]]

  [[-0.02804176 -0.02811363 -0.04728219 ... -0.04864784 -0.04864784
    -0.04864785]
   [-0.02811363 -0.02818586 -0.04748687 ... -0.04886455 -0.04886455
    -0.04886455]
   [-0.04728219 -0.04748687 -0.150645   ... -0.16544221 -0.16544221
    -0.16544227]
   ...
   [-0.04864784 -0.04886455 -0.16544221 ... -0.183463   -0.183463
    -0.18346307]
   [-0.04864784 -0.04886455 -0.16544221 ... -0.183463   -0.183463
    -0.18346307]
   [-0.04864785 -0.04886455 -0.16544227 ... -0.18346307 -0.18346307
    -0.18346313]]]


 [[[-0.02970245 -0.02978309 -0.0522036  ... -0.05387336 -0.05387336
    -0.05387336]
   [-0.02978309 -0.02986418 -0.05245322 ... -0.05413924 -0.05413924
    -0.05413925]
   [-0.0522036  -0.05245322 -0.21531876 ... -0.24687938 -0.24687938
    -0.24687951]
   ...
   [-0.05387336 -0.05413924 -0.24687938 ... -0.28928112 -0.28928113
    -0.2892813 ]
   [-0.05387336 -0.05413924 -0.24687938 ... -0.28928113 -0.28928113
    -0.2892813 ]
   [-0.05387336 -0.05413925 -0.24687951 ... -0.2892813  -0.2892813
    -0.28928147]]

  [[-0.02970244 -0.02978309 -0.05220358 ... -0.05387333 -0.05387333
    -0.05387334]
   [-0.02978309 -0.02986417 -0.0524532  ... -0.05413922 -0.05413922
    -0.05413923]
   [-0.05220358 -0.0524532  -0.21531839 ... -0.24687889 -0.24687889
    -0.24687901]
   ...
   [-0.05387333 -0.05413922 -0.24687889 ... -0.28928044 -0.28928044
    -0.28928062]
   [-0.05387333 -0.05413922 -0.24687889 ... -0.28928044 -0.28928044
    -0.28928062]
   [-0.05387334 -0.05413923 -0.24687901 ... -0.28928062 -0.28928062
    -0.28928079]]

  [[-0.02970244 -0.02978309 -0.05220358 ... -0.05387333 -0.05387333
    -0.05387334]
   [-0.02978309 -0.02986417 -0.0524532  ... -0.05413922 -0.05413922
    -0.05413923]
   [-0.05220358 -0.0524532  -0.21531839 ... -0.24687889 -0.24687889
    -0.24687901]
   ...
   [-0.05387333 -0.05413922 -0.24687889 ... -0.28928044 -0.28928044
    -0.28928062]
   [-0.05387333 -0.05413922 -0.24687889 ... -0.28928044 -0.28928044
    -0.28928062]
   [-0.05387334 -0.05413923 -0.24687901 ... -0.28928062 -0.28928062
    -0.28928079]]

  ...

  [[-0.02804176 -0.02811363 -0.04728219 ... -0.04864784 -0.04864784
    -0.04864785]
   [-0.02811363 -0.02818586 -0.04748687 ... -0.04886455 -0.04886455
    -0.04886455]
   [-0.04728219 -0.04748687 -0.150645   ... -0.16544221 -0.16544221
    -0.16544227]
   ...
   [-0.04864784 -0.04886455 -0.16544221 ... -0.183463   -0.183463
    -0.18346307]
   [-0.04864784 -0.04886455 -0.16544221 ... -0.183463   -0.183463
    -0.18346307]
   [-0.04864785 -0.04886455 -0.16544227 ... -0.18346307 -0.18346307
    -0.18346313]]

  [[-0.02804176 -0.02811363 -0.04728219 ... -0.04864784 -0.04864784
    -0.04864785]
   [-0.02811363 -0.02818586 -0.04748687 ... -0.04886455 -0.04886455
    -0.04886455]
   [-0.04728219 -0.04748687 -0.150645   ... -0.16544221 -0.16544221
    -0.16544226]
   ...
   [-0.04864784 -0.04886455 -0.16544221 ... -0.18346299 -0.18346299
    -0.18346306]
   [-0.04864784 -0.04886455 -0.16544221 ... -0.18346299 -0.18346299
    -0.18346306]
   [-0.04864785 -0.04886455 -0.16544226 ... -0.18346306 -0.18346306
    -0.18346313]]

  [[-0.02804176 -0.02811363 -0.04728219 ... -0.04864784 -0.04864784
    -0.04864785]
   [-0.02811363 -0.02818586 -0.04748687 ... -0.04886455 -0.04886455
    -0.04886455]
   [-0.04728219 -0.04748687 -0.150645   ... -0.16544221 -0.16544221
    -0.16544226]
   ...
   [-0.04864784 -0.04886455 -0.16544221 ... -0.18346299 -0.18346299
    -0.18346306]
   [-0.04864784 -0.04886455 -0.16544221 ... -0.18346299 -0.18346299
    -0.18346306]
   [-0.04864785 -0.04886455 -0.16544226 ... -0.18346306 -0.18346306
    -0.18346313]]]


 [[[-0.02970245 -0.02978309 -0.0522036  ... -0.05387336 -0.05387336
    -0.05387336]
   [-0.02978309 -0.02986418 -0.05245322 ... -0.05413924 -0.05413924
    -0.05413925]
   [-0.0522036  -0.05245322 -0.21531876 ... -0.24687938 -0.24687938
    -0.24687951]
   ...
   [-0.05387336 -0.05413924 -0.24687938 ... -0.28928112 -0.28928113
    -0.2892813 ]
   [-0.05387336 -0.05413924 -0.24687938 ... -0.28928113 -0.28928113
    -0.2892813 ]
   [-0.05387336 -0.05413925 -0.24687951 ... -0.2892813  -0.2892813
    -0.28928147]]

  [[-0.02970244 -0.02978309 -0.05220358 ... -0.05387333 -0.05387333
    -0.05387334]
   [-0.02978309 -0.02986417 -0.0524532  ... -0.05413922 -0.05413922
    -0.05413923]
   [-0.05220358 -0.0524532  -0.21531839 ... -0.24687889 -0.24687889
    -0.24687901]
   ...
   [-0.05387333 -0.05413922 -0.24687889 ... -0.28928044 -0.28928044
    -0.28928062]
   [-0.05387333 -0.05413922 -0.24687889 ... -0.28928044 -0.28928044
    -0.28928062]
   [-0.05387334 -0.05413923 -0.24687901 ... -0.28928062 -0.28928062
    -0.28928079]]

  [[-0.02970244 -0.02978309 -0.05220358 ... -0.05387333 -0.05387333
    -0.05387334]
   [-0.02978309 -0.02986417 -0.0524532  ... -0.05413922 -0.05413922
    -0.05413923]
   [-0.05220358 -0.0524532  -0.21531839 ... -0.24687889 -0.24687889
    -0.24687901]
   ...
   [-0.05387333 -0.05413922 -0.24687889 ... -0.28928044 -0.28928044
    -0.28928062]
   [-0.05387333 -0.05413922 -0.24687889 ... -0.28928044 -0.28928044
    -0.28928062]
   [-0.05387334 -0.05413923 -0.24687901 ... -0.28928062 -0.28928062
    -0.28928079]]

  ...

  [[-0.02804176 -0.02811363 -0.04728219 ... -0.04864784 -0.04864784
    -0.04864785]
   [-0.02811363 -0.02818586 -0.04748687 ... -0.04886455 -0.04886455
    -0.04886455]
   [-0.04728219 -0.04748687 -0.150645   ... -0.16544221 -0.16544221
    -0.16544227]
   ...
   [-0.04864784 -0.04886455 -0.16544221 ... -0.183463   -0.183463
    -0.18346307]
   [-0.04864784 -0.04886455 -0.16544221 ... -0.183463   -0.183463
    -0.18346307]
   [-0.04864785 -0.04886455 -0.16544227 ... -0.18346307 -0.18346307
    -0.18346313]]

  [[-0.02804176 -0.02811363 -0.04728219 ... -0.04864784 -0.04864784
    -0.04864785]
   [-0.02811363 -0.02818586 -0.04748687 ... -0.04886455 -0.04886455
    -0.04886455]
   [-0.04728219 -0.04748687 -0.150645   ... -0.16544221 -0.16544221
    -0.16544226]
   ...
   [-0.04864784 -0.04886455 -0.16544221 ... -0.18346299 -0.18346299
    -0.18346306]
   [-0.04864784 -0.04886455 -0.16544221 ... -0.18346299 -0.18346299
    -0.18346306]
   [-0.04864785 -0.04886455 -0.16544226 ... -0.18346306 -0.18346306
    -0.18346313]]

  [[-0.02804176 -0.02811363 -0.04728219 ... -0.04864784 -0.04864784
    -0.04864785]
   [-0.02811363 -0.02818586 -0.04748687 ... -0.04886455 -0.04886455
    -0.04886455]
   [-0.04728219 -0.04748687 -0.150645   ... -0.16544221 -0.16544221
    -0.16544226]
   ...
   [-0.04864784 -0.04886455 -0.16544221 ... -0.18346299 -0.18346299
    -0.18346306]
   [-0.04864784 -0.04886455 -0.16544221 ... -0.18346299 -0.18346299
    -0.18346306]
   [-0.04864785 -0.04886455 -0.16544226 ... -0.18346306 -0.18346306
    -0.18346313]]]] (21, 21, 7, 7)
hf energy: -108.78223205344032
nuclear repulsion: 5.444444444444444
(28, 28, 28, 28)
initial energy: -114.22667649788478
    ==> CCSDT amplitude equations <==

     Iter              Corr. Energy                 |dE|    |dT|

there zww hi
still here
hi
        0      -0.144662933270       0.144662933270       1.857947350624

there zww hi
still here
hi
        1      -0.169701344436       0.025038411166       2.086540185524

there zww hi
still here
hi
        2      -0.174519473015       0.004818128579       2.116117117542

there zww hi
still here
hi
        3      -0.175638190651       0.001118717637       2.120607649677

there zww hi
still here
hi
        4      -0.175944480568       0.000306289916       2.121587094765

there zww hi
still here
hi
        5      -0.176098119125       0.000153638557       2.121905725413

there zww hi
still here
hi
        6      -0.176088002703       0.000010116422       2.122116658413

there zww hi
still here
hi
        7      -0.176088840006       0.000000837303       2.122136243808

there zww hi
still here
hi
        8      -0.176088819411       0.000000020595       2.122137210753

there zww hi
still here
hi
        9      -0.176088816390       0.000000003021       2.122137017351

there zww hi
still here
hi
       10      -0.176088816051       0.000000000339       2.122137024824

there zww hi
still here
hi
       11      -0.176088816790       0.000000000740       2.122137027015

there zww hi
still here
hi
       12      -0.176088817567       0.000000000777       2.122137026699

there zww hi
still here
hi
       13      -0.176088816530       0.000000001037       2.122137025589

there zww hi
still here
hi
       14      -0.176088815617       0.000000000913       2.122137025801

there zww hi
still here
hi
       15      -0.176088816925       0.000000001308       2.122137027463

there zww hi
still here
hi
       16      -0.176088816487       0.000000000439       2.122137027537

there zww hi
still here
hi
       17      -0.176088816415       0.000000000072       2.122137025851








Final, total correlated energy: -108.95832086985489
Final CCD correlation contribution: -0.17608881641456264
