#INFO: **** input file is /blue/bartlett/z.windom/MOLSSI_develop/test/build_T2_interfaces/RECORDS/verify_spin_CCD/pyscfCode/N2_equil_UHF/run_pyscf.py ****
import numpy as np
import pyscf
from pyscf import ao2mo


def main():
    """ Initialize calculation details, 2e- integrals, Fock matrix, etc """

    # run pyscf for some reason
    basis = 'ccpvdz'
    mol = pyscf.M(
        atom='N 0 0 0; N 0 0 {}'.format(5.000), #2.0749193),
        #atom='Be 0 0 0'
        verbose=5,
        unit='b',
        basis=basis)



    mf = mol.UHF()
    mf.run()

    from pyscf.lib import logger

    def stable_opt_internal(mf):
        log = logger.new_logger(mf)
        mo1, _, stable, _ = mf.stability(return_status=True)
        cyc = 0
        while (not stable and cyc < 10):
            log.note('Try to optimize orbitals until stable, attempt %d' % cyc)
            dm1 = mf.make_rdm1(mo1, mf.mo_occ)
            mf = mf.run(dm1)
            mo1, _, stable, _ = mf.stability(return_status=True)
            cyc += 1
        if not stable:
            log.note('Stability Opt failed after %d attempts' % cyc)
        return mf
    print('loop example')
    mf = stable_opt_internal(mf)

    orb=mf.mo_coeff
    print(np.shape(mf.get_hcore()))
    print(np.shape(orb))
    import run_ccd as run_ccd 
 
    run_ccd.ccd_main(mf,mol,orb)


main()
#INFO: ******************** input file end ********************


System: uname_result(system='Linux', node='login2.ufhpc', release='3.10.0-1160.80.1.el7.x86_64', version='#1 SMP Sat Oct 8 18:13:21 UTC 2022', machine='x86_64', processor='x86_64')  Threads 32
Python 3.7.12 | packaged by conda-forge | (default, Oct 26 2021, 06:08:21) 
[GCC 9.4.0]
numpy 1.21.6  scipy 1.7.3
Date: Sat Jan 28 00:43:45 2023
PySCF version 2.1.1
PySCF path  /blue/bartlett/z.windom/MOLSSI_develop/T2method/new/pyscf
GIT ORIG_HEAD 41535e74b1de6eb21fc9b6a13c089d6cd55b35d7
GIT HEAD (branch master) ff882f83f5730ea5610d52cc5b88d278f9b71da7

[ENV] PYSCF_INC_DIR /home/z.windom/libxc-4.3.4
[CONFIG] conf_file /home/z.windom/.pyscf_conf.py
[INPUT] verbose = 5
[INPUT] max_memory = 4000 
[INPUT] num. atoms = 2
[INPUT] num. electrons = 14
[INPUT] charge = 0
[INPUT] spin (= nelec alpha-beta = 2S) = 0
[INPUT] symmetry False subgroup None
[INPUT] Mole.unit = b
[INPUT] Symbol           X                Y                Z      unit          X                Y                Z       unit  Magmom
[INPUT]  1 N      0.000000000000   0.000000000000   0.000000000000 AA    0.000000000000   0.000000000000   0.000000000000 Bohr   0.0
[INPUT]  2 N      0.000000000000   0.000000000000   2.645886054600 AA    0.000000000000   0.000000000000   5.000000000000 Bohr   0.0
[INPUT] ---------------- BASIS SET ---------------- 
[INPUT] l, kappa, [nprim/nctr], expnt,             c_1 c_2 ...
[INPUT] N
[INPUT] 0    0    [8    /2   ]  9046              0.0007 -0.000153
                                1357              0.005389 -0.001208
                                309.3             0.027406 -0.005992
                                87.73             0.103207 -0.024544
                                28.56             0.278723 -0.067459
                                10.21             0.44854 -0.158078
                                3.838             0.278238 -0.121831
                                0.7466            0.01544 0.549003
[INPUT] 0    0    [1    /1   ]  0.2248               1
[INPUT] 1    0    [3    /1   ]  13.55             0.039919
                                2.917             0.217169
                                0.7973            0.510319
[INPUT] 1    0    [1    /1   ]  0.2185               1
[INPUT] 2    0    [1    /1   ]  0.817                1

nuclear repulsion = 9.8
number of shells = 10
number of NR pGTOs = 52
number of NR cGTOs = 28
basis = ccpvdz
ecp = {}
CPU time:         2.37


******** <class 'pyscf.scf.uhf.UHF'> ********
method = UHF
initial guess = minao
damping factor = 0
level_shift factor = 0
DIIS = <class 'pyscf.scf.diis.CDIIS'>
diis_start_cycle = 1
diis_space = 8
SCF conv_tol = 1e-09
SCF conv_tol_grad = None
SCF max_cycles = 50
direct_scf = True
direct_scf_tol = 1e-13
chkfile to save SCF result = /blue/bartlett/z.windom/MOLSSI_develop/test/build_T2_interfaces/RECORDS/verify_spin_CCD/pyscfCode/N2_equil_UHF/tmp7p3i90za
max_memory 4000 MB (current use 85 MB)
number electrons alpha = 7  beta = 7
Set gradient conv threshold to 3.16228e-05
E1 = -167.989499660805  Ecoul = 50.62171321269572
init E= -107.567786448109
cond(S) = 12.29343002189421
    CPU time for initialize scf      0.95 sec, wall time      0.06 sec
  alpha nocc = 7  HOMO = -0.176094569344633  LUMO = -0.148988783160413
  beta  nocc = 7  HOMO = -0.175109994312729  LUMO = -0.149523064985379
  alpha mo_energy =
[-15.55145062 -15.55142293  -0.94105382  -0.89715983  -0.21359627
  -0.17609457  -0.17609457  -0.14898878  -0.14898878  -0.09938123
   0.91751298   0.9454696    0.9454696    1.01087684   1.03490007
   1.03490007   1.04613499   1.34209197   2.06156714   2.0693153
   2.0693153    2.0731824    2.0731824    2.07392517   2.07392517
   2.08105891   2.08105891   2.16505407]
  beta  mo_energy =
[-15.55142616 -15.55142048  -0.93750183  -0.89864326  -0.21226831
  -0.17510999  -0.17510999  -0.14952306  -0.14952306  -0.09952735
   0.917738     0.94547734   0.94547734   1.01081873   1.03500191
   1.03500191   1.04621291   1.34223126   2.06164098   2.06949423
   2.06949423   2.07325464   2.07325464   2.07395074   2.07395074
   2.08110962   2.08110962   2.16518291]
multiplicity <S^2> = 4.2169435e-06  2S+1 = 1.0000084
E1 = -165.40978853726176  Ecoul = 47.550951549785566
cycle= 1 E= -108.058836987476  delta_E= -0.491  |g|= 0.18  |ddm|= 1.15
    CPU time for cycle= 1      0.24 sec, wall time      0.01 sec
  alpha nocc = 7  HOMO = -0.382291691103001  LUMO = -0.171844812723866
  beta  nocc = 7  HOMO = -0.382400297436232  LUMO = -0.171975673057113
  alpha mo_energy =
[-15.93283608 -15.93272482  -1.07620627  -1.03697419  -0.42047191
  -0.38229169  -0.38229169  -0.17184481  -0.17184481  -0.12112484
   0.82367247   0.84632218   0.84632218   0.91004204   0.93668013
   0.93668013   0.94457237   1.25250884   1.94265589   1.95034387
   1.95034387   1.9531745    1.9531745    1.95858925   1.95858925
   1.97003333   1.97003333   2.05716267]
  beta  mo_energy =
[-15.9329     -15.93278861  -1.07635628  -1.03711678  -0.42039178
  -0.3824003   -0.3824003   -0.17197567  -0.17197567  -0.1214132
   0.82350278   0.8462711    0.8462711    0.91013609   0.93661116
   0.93661116   0.94467164   1.2523299    1.94262819   1.95031841
   1.95031841   1.95313287   1.95313287   1.9585462    1.9585462
   1.96999729   1.96999729   2.05713458]
multiplicity <S^2> = 1.3712905e-06  2S+1 = 1.0000027
E1 = -166.42395883242995  Ecoul = 48.54905735143478
cycle= 2 E= -108.074901480995  delta_E= -0.0161  |g|= 0.0467  |ddm|= 0.222
    CPU time for cycle= 2      0.23 sec, wall time      0.01 sec
  alpha nocc = 7  HOMO = -0.347444375481774  LUMO = -0.135061366608714
  beta  nocc = 7  HOMO = -0.347504788273411  LUMO = -0.135131859865433
  alpha mo_energy =
[-15.81922393 -15.81910367  -1.03925273  -0.99899749  -0.3867798
  -0.34744438  -0.34744438  -0.13506137  -0.13506137  -0.08047382
   0.85674189   0.87775861   0.87775861   0.93977579   0.96783266
   0.96783266   0.97260708   1.28088936   1.97869782   1.98651831
   1.98651831   1.989529     1.989529     1.9949297    1.9949297
   2.00632295   2.00632295   2.09330957]
  beta  mo_energy =
[-15.81926546 -15.81914512  -1.03934426  -0.99908461  -0.38670954
  -0.34750479  -0.34750479  -0.13513186  -0.13513186  -0.08065879
   0.85658551   0.87771955   0.87771955   0.93985827   0.96778541
   0.96778541   0.97269142   1.28075039   1.97868203   1.98650343
   1.98650343   1.9895054    1.9895054    1.99490546   1.99490546
   2.00630487   2.00630487   2.09329624]
multiplicity <S^2> = 6.7936009e-07  2S+1 = 1.0000014
E1 = -166.1967993626401  Ecoul = 48.32052659724225
cycle= 3 E= -108.076272765398  delta_E= -0.00137  |g|= 0.00921  |ddm|= 0.0449
    CPU time for cycle= 3      0.24 sec, wall time      0.01 sec
  alpha nocc = 7  HOMO = -0.348815290714497  LUMO = -0.13613704614349
  beta  nocc = 7  HOMO = -0.34883420951193  LUMO = -0.136154905267544
  alpha mo_energy =
[-15.82327991 -15.82316175  -1.04174151  -1.00115455  -0.38888459
  -0.34881529  -0.34881529  -0.13613705  -0.13613705  -0.07960833
   0.8556889    0.87669443   0.87669443   0.93874962   0.96672861
   0.96672861   0.97143418   1.27942603   1.97736682   1.98522161
   1.98522161   1.98821161   1.98821161   1.99362914   1.99362914
   2.00522822   2.00522822   2.09238113]
  beta  mo_energy =
[-15.82329337 -15.82317518  -1.04177494  -1.0011847   -0.38884435
  -0.34883421  -0.34883421  -0.13615491  -0.13615491  -0.07967128
   0.85561335   0.87668321   0.87668321   0.93880071   0.96671445
   0.96671445   0.97148346   1.27936216   1.97736291   1.98521743
   1.98521743   1.98820472   1.98820472   1.99362224   1.99362224
   2.00522549   2.00522549   2.09237999]
multiplicity <S^2> = 1.5006786e-07  2S+1 = 1.0000003
E1 = -166.20012580015296  Ecoul = 48.323759458144536
cycle= 4 E= -108.076366342008  delta_E= -9.36e-05  |g|= 0.000807  |ddm|= 0.0155
    CPU time for cycle= 4      0.23 sec, wall time      0.01 sec
  alpha nocc = 7  HOMO = -0.348893482433336  LUMO = -0.136236655575524
  beta  nocc = 7  HOMO = -0.348903236653675  LUMO = -0.136246164174214
  alpha mo_energy =
[-15.82340771 -15.82328965  -1.04166415  -1.00097718  -0.38902439
  -0.34889348  -0.34889348  -0.13623666  -0.13623666  -0.0797342
   0.8554422    0.87652302   0.87652302   0.93881374   0.96660552
   0.96660552   0.97149704   1.27922118   1.9772689    1.98512173
   1.98512173   1.98810748   1.98810748   1.99352378   1.99352378
   2.00512058   2.00512058   2.09225908]
  beta  mo_energy =
[-15.82341401 -15.82329594  -1.04168096  -1.00099043  -0.38899572
  -0.34890324  -0.34890324  -0.13624616  -0.13624616  -0.07976897
   0.85539962   0.87651841   0.87651841   0.93884667   0.96659866
   0.96659866   0.9715286    1.27918431   1.97726755   1.98512008
   1.98512008   1.98810355   1.98810355   1.99351982   1.99351982
   2.0051194    2.0051194    2.09225904]
multiplicity <S^2> = 5.5087848e-08  2S+1 = 1.0000001
E1 = -166.20022005676026  Ecoul = 48.323853275457964
cycle= 5 E= -108.076366781302  delta_E= -4.39e-07  |g|= 0.000165  |ddm|= 0.000917
    CPU time for cycle= 5      0.35 sec, wall time      0.01 sec
  alpha nocc = 7  HOMO = -0.348909677743494  LUMO = -0.136251350037498
  beta  nocc = 7  HOMO = -0.348914957710054  LUMO = -0.136256575519933
  alpha mo_energy =
[-15.82344109 -15.82332302  -1.04163577  -1.00095302  -0.38902828
  -0.34890968  -0.34890968  -0.13625135  -0.13625135  -0.07975523
   0.85547126   0.87652009   0.87652009   0.93880793   0.96659883
   0.96659883   0.97150076   1.27924655   1.97726679   1.98511978
   1.98511978   1.98810606   1.98810606   1.99352241   1.99352241
   2.00512098   2.00512098   2.09226264]
  beta  mo_energy =
[-15.82344427 -15.82332619  -1.04164468  -1.00095973  -0.38900978
  -0.34891496  -0.34891496  -0.13625658  -0.13625658  -0.0797748
   0.8554464    0.87651794   0.87651794   0.93882849   0.96659524
   0.96659524   0.97152045   1.27922489   1.97726632   1.98511911
   1.98511911   1.98810377   1.98810377   1.99352009   1.99352009
   2.0051205    2.0051205    2.09226295]
multiplicity <S^2> = 1.9996933e-08  2S+1 = 1
E1 = -166.2002566474519  Ecoul = 48.323889842952255
cycle= 6 E= -108.0763668045  delta_E= -2.32e-08  |g|= 3.92e-05  |ddm|= 0.000247
    CPU time for cycle= 6      0.43 sec, wall time      0.01 sec
  alpha nocc = 7  HOMO = -0.348916986664142  LUMO = -0.136256962079338
  beta  nocc = 7  HOMO = -0.348918983505436  LUMO = -0.13625887562263
  alpha mo_energy =
[-15.82345075 -15.82333267  -1.04164228  -1.0009592   -0.38903033
  -0.34891699  -0.34891699  -0.13625696  -0.13625696  -0.0797645
   0.85546038   0.87651916   0.87651916   0.93881706   0.96659654
   0.96659654   0.97151069   1.27923719   1.97726403   1.98511704
   1.98511704   1.98810314   1.98810314   1.99351952   1.99351952
   2.00511836   2.00511836   2.09225997]
  beta  mo_energy =
[-15.82345185 -15.82333377  -1.04164563  -1.00096156  -0.38902179
  -0.34891898  -0.34891898  -0.13625888  -0.13625888  -0.07977244
   0.85544964   0.87651851   0.87651851   0.93882648   0.96659524
   0.96659524   0.97151971   1.27922782   1.97726396   1.98511687
   1.98511687   1.98810222   1.98810222   1.99351859   1.99351859
   2.0051183    2.0051183    2.09226028]
multiplicity <S^2> = 3.8719952e-09  2S+1 = 1
E1 = -166.2002539536373  Ecoul = 48.32388714616816
cycle= 7 E= -108.076366807469  delta_E= -2.97e-09  |g|= 1.73e-05  |ddm|= 6.67e-05
    CPU time for cycle= 7      0.39 sec, wall time      0.01 sec
  alpha nocc = 7  HOMO = -0.348916365231432  LUMO = -0.136257191932443
  beta  nocc = 7  HOMO = -0.348916212704135  LUMO = -0.136257003483072
  alpha mo_energy =
[-15.82344984 -15.82333176  -1.04164309  -1.00095899  -0.38902499
  -0.34891637  -0.34891637  -0.13625719  -0.13625719  -0.07976944
   0.85545416   0.87651758   0.87651758   0.93881958   0.96659532
   0.96659532   0.97151262   1.27923203   1.97726367   1.98511665
   1.98511665   1.98810235   1.98810235   1.99351871   1.99351871
   2.00511796   2.00511796   2.09225967]
  beta  mo_energy =
[-15.82344969 -15.82333161  -1.04164284  -1.00095862  -0.38902443
  -0.34891621  -0.34891621  -0.136257    -0.136257    -0.07976937
   0.85545392   0.87651778   0.87651778   0.93882016   0.96659546
   0.96659546   0.97151317   1.2792318    1.97726374   1.98511672
   1.98511672   1.98810238   1.98810238   1.99351874   1.99351874
   2.00511804   2.00511804   2.09225978]
multiplicity <S^2> = 6.476597e-12  2S+1 = 1
E1 = -166.20025764005283  Ecoul = 48.323890831874024
cycle= 8 E= -108.076366808179  delta_E= -7.1e-10  |g|= 2.24e-06  |ddm|= 4.83e-05
    CPU time for cycle= 8      0.42 sec, wall time      0.01 sec
  alpha nocc = 7  HOMO = -0.348916173239613  LUMO = -0.136256758385583
  beta  nocc = 7  HOMO = -0.348916111025688  LUMO = -0.136256680045109
  alpha mo_energy =
[-15.82344876 -15.82333066  -1.04164304  -1.0009592   -0.38902439
  -0.34891617  -0.34891617  -0.13625676  -0.13625676  -0.07976827
   0.85545523   0.87651851   0.87651851   0.93882035   0.966596
   0.966596     0.97151341   1.27923281   1.9772644    1.98511735
   1.98511735   1.98810303   1.98810303   1.99351939   1.99351939
   2.00511868   2.00511868   2.09226046]
  beta  mo_energy =
[-15.82344869 -15.82333059  -1.04164294  -1.00095905  -0.38902407
  -0.34891611  -0.34891611  -0.13625668  -0.13625668  -0.07976828
   0.85545504   0.8765186    0.8765186    0.93882069   0.96659607
   0.96659607   0.97151373   1.27923264   1.97726443   1.98511739
   1.98511739   1.98810304   1.98810304   1.9935194    1.9935194
   2.00511872   2.00511872   2.09226051]
multiplicity <S^2> = 2.5632829e-12  2S+1 = 1
E1 = -166.2002549945855  Ecoul = 48.323888186446595
Extra cycle  E= -108.076366808139  delta_E= 3.99e-11  |g|= 1.04e-05  |ddm|= 5.38e-06
    CPU time for scf_cycle      3.87 sec, wall time      0.16 sec
    CPU time for SCF      3.87 sec, wall time      0.16 sec
converged SCF energy = -108.076366808139  <S^2> = 2.5632829e-12  2S+1 = 1
loop example
davidson 0 1  |r|= 1.73  e= [0.51029009]  max|de|= 0.51  lindep= 0.954
davidson 1 2  |r|= 0.451  e= [-0.33278379]  max|de|= -0.843  lindep= 0.974
davidson 2 3  |r|= 0.463  e= [-0.44041977]  max|de|= -0.108  lindep= 0.924
davidson 3 4  |r|= 0.0799  e= [-0.48876292]  max|de|= -0.0483  lindep= 0.926
davidson 4 5  |r|= 0.0581  e= [-0.49132869]  max|de|= -0.00257  lindep= 0.864
davidson 5 6  |r|= 0.409  e= [-0.67488584]  max|de|= -0.184  lindep= 0.916
davidson 6 7  |r|= 0.281  e= [-0.76185567]  max|de|= -0.087  lindep= 0.876
davidson 7 8  |r|= 0.109  e= [-0.82471496]  max|de|= -0.0629  lindep= 0.982
davidson 8 9  |r|= 0.189  e= [-0.83530628]  max|de|= -0.0106  lindep= 0.853
davidson 9 10  |r|= 0.143  e= [-0.87805572]  max|de|= -0.0427  lindep= 0.973
davidson 10 11  |r|= 0.0644  e= [-0.88563037]  max|de|= -0.00757  lindep= 0.884
davidson 11 12  |r|= 0.0532  e= [-0.88932282]  max|de|= -0.00369  lindep= 0.956
davidson 12 1  |r|= 0.0532  e= [-0.88932282]  max|de|= -1.11e-16  lindep= 0.998
davidson 13 2  |r|= 0.0107  e= [-0.88982816]  max|de|= -0.000505  lindep= 0.976
root 0 converged  |r|= 0.00701  e= -0.8898933517089473  max|de|= -6.52e-05
converged 14 3  |r|= 0.00701  e= [-0.88989335]  max|de|= -6.52e-05
<class 'pyscf.scf.uhf.UHF'> wavefunction has an internal instability.
Try to optimize orbitals until stable, attempt 0


******** <class 'pyscf.scf.uhf.UHF'> ********
method = UHF
initial guess = minao
damping factor = 0
level_shift factor = 0
DIIS = <class 'pyscf.scf.diis.CDIIS'>
diis_start_cycle = 1
diis_space = 8
SCF conv_tol = 1e-09
SCF conv_tol_grad = None
SCF max_cycles = 50
direct_scf = True
direct_scf_tol = 1e-13
chkfile to save SCF result = /blue/bartlett/z.windom/MOLSSI_develop/test/build_T2_interfaces/RECORDS/verify_spin_CCD/pyscfCode/N2_equil_UHF/tmp7p3i90za
max_memory 4000 MB (current use 95 MB)
number electrons alpha = 7  beta = 7
Set gradient conv threshold to 3.16228e-05
E1 = -166.5650225388988  Ecoul = 48.38078065795857
init E= -108.38424188094
cond(S) = 12.29343002189421
    CPU time for initialize scf      0.75 sec, wall time      0.02 sec
  alpha nocc = 7  HOMO = -0.370508969162065  LUMO = -0.0592100591717383
  beta  nocc = 7  HOMO = -0.370509272242619  LUMO = -0.0592099505839388
  alpha mo_energy =
[-15.76858873 -15.76652688  -1.02200434  -0.98464295  -0.51440128
  -0.5124732   -0.37050897  -0.05921006   0.04684202   0.04846608
   0.86563361   0.86658038   0.87150804   0.95632864   0.98852104
   1.01592182   1.0169568    1.29265446   1.95964476   1.97283617
   1.97418497   1.99488092   2.00703986   2.01060505   2.04942165
   2.05110697   2.052444     2.12493802]
  beta  mo_energy =
[-15.76855375 -15.76656141  -1.02199874  -0.98464774  -0.51406808
  -0.51276228  -0.37050927  -0.05920995   0.04708332   0.04818994
   0.86569844   0.86651548   0.87150794   0.95633057   0.9885192
   1.01598752   1.01689291   1.29265437   1.9596444    1.97291167
   1.97410374   1.99487731   2.00707308   2.01057254   2.04942568
   2.05118545   2.05237172   2.12493952]
multiplicity <S^2> = 1.9133883  2S+1 = 2.9416922
E1 = -166.88060370507344  Ecoul = 48.58732766835679
cycle= 1 E= -108.493276036717  delta_E= -0.109  |g|= 0.0943  |ddm|= 0.349
    CPU time for cycle= 1      0.41 sec, wall time      0.01 sec
  alpha nocc = 7  HOMO = -0.3542446040878  LUMO = -0.0409623022645171
  beta  nocc = 7  HOMO = -0.354245105012917  LUMO = -0.0409616978308306
  alpha mo_energy =
[-15.72325378 -15.72311028  -1.0037757   -0.96899308  -0.54303108
  -0.54238659  -0.3542446   -0.0409623    0.09500639   0.09541382
   0.86930057   0.86964851   0.88628381   0.97184907   1.00376363
   1.03918081   1.03939792   1.30466273   1.96786612   1.98211601
   1.98253285   2.00677376   2.02281543   2.02457813   2.07121314
   2.0717553    2.07215202   2.14388149]
  beta  mo_energy =
[-15.72322814 -15.72313494  -1.00377408  -0.96899322  -0.54291602
  -0.54249094  -0.35424511  -0.0409617    0.09507341   0.0953423
   0.86933943   0.86961212   0.8862839    0.97184998   1.00376307
   1.03920845   1.03937166   1.30466276   1.9678662    1.98219811
   1.98244998   2.0067732    2.0228209    2.02457334   2.07121474
   2.07183797   2.07207026   2.14388186]
multiplicity <S^2> = 1.9951939  2S+1 = 2.9967942
E1 = -166.90235872831263  Ecoul = 48.59347879156617
cycle= 2 E= -108.508879936746  delta_E= -0.0156  |g|= 0.0332  |ddm|= 0.129
    CPU time for cycle= 2      0.39 sec, wall time      0.01 sec
  alpha nocc = 7  HOMO = -0.34975352815785  LUMO = -0.0357717530244968
  beta  nocc = 7  HOMO = -0.349751865210251  LUMO = -0.0357732461122591
  alpha mo_energy =
[-15.717847   -15.71611722  -0.99907623  -0.96605376  -0.55541604
  -0.55432161  -0.34975353  -0.03577175   0.10587388   0.10676061
   0.86682061   0.86754301   0.89033582   0.97553775   1.00759542
   1.04384405   1.04467145   1.30763971   1.96812585   1.98214058
   1.98329926   2.00826565   2.02558487   2.02687844   2.07561402
   2.07597109   2.07677738   2.14802691]
  beta  mo_energy =
[-15.71779472 -15.71616905  -0.99906807  -0.96606112  -0.55535291
  -0.55438511  -0.34975187  -0.03577325   0.10591854   0.10671794
   0.86685063   0.86751433   0.89033627   0.97554232   1.00759078
   1.04387239   1.04464344   1.30763951   1.96812841   1.98233407
   1.98310619   2.00826346   2.02560125   2.02686224   2.07579963
   2.07597958   2.07658484   2.14802489]
multiplicity <S^2> = 2.0129102  2S+1 = 3.0085945
E1 = -166.9316800385701  Ecoul = 48.620905852779956
cycle= 3 E= -108.51077418579  delta_E= -0.00189  |g|= 0.00268  |ddm|= 0.0634
    CPU time for cycle= 3      0.41 sec, wall time      0.01 sec
  alpha nocc = 7  HOMO = -0.348626878248766  LUMO = -0.0345213305591713
  beta  nocc = 7  HOMO = -0.348631772457646  LUMO = -0.0345164644229629
  alpha mo_energy =
[-15.71491054 -15.71295276  -0.9979462   -0.96487361  -0.55277242
  -0.55196773  -0.34862688  -0.03452133   0.10509204   0.10584856
   0.86749371   0.86804307   0.89133268   0.97642221   1.00840867
   1.04464076   1.04544137   1.30855872   1.96931061   1.98359632
   1.98412341   2.0092847    2.02655618   2.02780656   2.07662008
   2.0767032    2.07721508   2.14883098]
  beta  mo_energy =
[-15.71501622 -15.71284679  -0.99796258  -0.96485679  -0.55291896
  -0.5518203   -0.34863177  -0.03451646   0.10497041   0.10597007
   0.86744029   0.86809681   0.8913321    0.97641309   1.00841882
   1.04457802   1.04550452   1.3085594    1.96930553   1.98317902
   1.98454062   2.00928985   2.02651731   2.02784553   2.0762523
   2.07665284   2.07762958   2.14883528]
multiplicity <S^2> = 2.0126685  2S+1 = 3.0084338
E1 = -166.9288838710874  Ecoul = 48.61809321518933
cycle= 4 E= -108.510790655898  delta_E= -1.65e-05  |g|= 0.00271  |ddm|= 0.00469
    CPU time for cycle= 4      0.44 sec, wall time      0.01 sec
  alpha nocc = 7  HOMO = -0.348632228019235  LUMO = -0.0345153243575357
  beta  nocc = 7  HOMO = -0.348635172233967  LUMO = -0.0345126196449335
  alpha mo_energy =
[-15.71449053 -15.71354183  -0.99796378  -0.96489308  -0.55259249
  -0.55230549  -0.34863223  -0.03451532   0.10531784   0.10561078
   0.8676108    0.86784034   0.89132259   0.97641709   1.0084006
   1.04483615   1.04520046   1.30854923   1.96928519   1.9838081
   1.98385445   2.00925508   2.02667878   2.02763285   2.07662234
   2.07690789   2.07694493   2.14880936]
  beta  mo_energy =
[-15.71462171 -15.71341044  -0.99797406  -0.96488246  -0.55277308
  -0.55212413  -0.34863517  -0.03451262   0.10516657   0.10576194
   0.86754537   0.86790608   0.89132213   0.97641135   1.008407
   1.04475824   1.04527866   1.3085496    1.969282     1.98333328
   1.98432917   2.00925832   2.02664693   2.02766478   2.07641215
   2.07663713   2.07742354   2.14881205]
multiplicity <S^2> = 2.0127168  2S+1 = 3.0084659
E1 = -166.92916344715238  Ecoul = 48.618364045704325
cycle= 5 E= -108.510799401448  delta_E= -8.75e-06  |g|= 0.00303  |ddm|= 0.00159
    CPU time for cycle= 5      0.41 sec, wall time      0.01 sec
  alpha nocc = 7  HOMO = -0.348589381866425  LUMO = -0.0344739333933334
  beta  nocc = 7  HOMO = -0.348587238017303  LUMO = -0.0344765157288495
  alpha mo_energy =
[-15.71452032 -15.71329691  -0.99792854  -0.96484418  -0.55265763
  -0.55193604  -0.34858938  -0.03447393   0.10507207   0.10567992
   0.86752727   0.8679745    0.89135609   0.97644319   1.00843137
   1.04475666   1.04531157   1.30858139   1.9693318    1.98350125
   1.98425501   2.00929654   2.02665288   2.02772409   2.07654172
   2.07666392   2.07731734   2.14883242]
  beta  mo_energy =
[-15.71448502 -15.71333213  -0.99792485  -0.96484756  -0.55260486
  -0.5519879   -0.34858724  -0.03447652   0.10511302   0.10563873
   0.86754684   0.86795538   0.89135607   0.97644505   1.00842925
   1.04477804   1.04529028   1.30858114   1.96933287   1.98363557
   1.98412064   2.00929546   2.02666328   2.02771375   2.07661809
   2.07672169   2.07718395   2.14883149]
multiplicity <S^2> = 2.0125751  2S+1 = 3.0083717
E1 = -166.92899347019005  Ecoul = 48.61821442861789
cycle= 6 E= -108.510779041572  delta_E= 2.04e-05  |g|= 0.00123  |ddm|= 0.00566
    CPU time for cycle= 6      0.55 sec, wall time      0.02 sec
  alpha nocc = 7  HOMO = -0.348634426061908  LUMO = -0.0345057607032746
  beta  nocc = 7  HOMO = -0.348633955616587  LUMO = -0.0345065829224125
  alpha mo_energy =
[-15.71443934 -15.71438905  -0.99804994  -0.9649809   -0.55284085
  -0.55281231  -0.34863443  -0.03450576   0.10543284   0.10544616
   0.86751219   0.8675311    0.891277     0.97638394   1.00837177
   1.04490952   1.04491652   1.30850525   1.9691547    1.98368652
   1.98370578   2.00912369   2.02660733   2.02746404   2.0765272
   2.07681569   2.07683508   2.14871298]
  beta  mo_energy =
[-15.7144396  -15.71438879  -0.9980499   -0.96498091  -0.55283702
  -0.55281589  -0.34863396  -0.03450658   0.10543467   0.10544428
   0.86751366   0.86752975   0.89127688   0.9763839    1.00837176
   1.04491008   1.04491601   1.30850513   1.96915468   1.98369073
   1.9837015    2.00912368   2.02660735   2.02746403   2.07652725
   2.07681856   2.07683212   2.14871295]
multiplicity <S^2> = 2.0126044  2S+1 = 3.0083912
E1 = -166.930398793541  Ecoul = 48.61961988007785
cycle= 7 E= -108.510778913463  delta_E= 1.28e-07  |g|= 0.000413  |ddm|= 0.00231
    CPU time for cycle= 7      0.29 sec, wall time      0.01 sec
  alpha nocc = 7  HOMO = -0.348519321264505  LUMO = -0.0343799172388292
  beta  nocc = 7  HOMO = -0.348519868110864  LUMO = -0.0343792997027563
  alpha mo_energy =
[-15.71409779 -15.71404762  -0.99793345  -0.96486602  -0.55287755
  -0.55287667  -0.34851932  -0.03437992   0.10566178   0.10566295
   0.86757356   0.8675744    0.89139303   0.97648054   1.00846451
   1.04506227   1.04506402   1.30860492   1.96924685   1.98378709
   1.98378922   2.00922297   2.02671848   2.02757366   2.07666311
   2.07694771   2.07695547   2.14884008]
  beta  mo_energy =
[-15.71409779 -15.71404763  -0.99793351  -0.96486604  -0.55287774
  -0.55287661  -0.34851987  -0.0343793    0.10566186   0.10566294
   0.86757231   0.86757561   0.89139305   0.97648059   1.00846454
   1.04506144   1.04506484   1.30860492   1.96924685   1.98378773
   1.98378861   2.00922297   2.02671847   2.02757366   2.07666312
   2.07694745   2.07695572   2.1488401 ]
multiplicity <S^2> = 2.0126326  2S+1 = 3.00841
E1 = -166.93019575391207  Ecoul = 48.619416003470846
cycle= 8 E= -108.510779750441  delta_E= -8.37e-07  |g|= 0.000295  |ddm|= 0.00127
    CPU time for cycle= 8      0.22 sec, wall time      0.01 sec
  alpha nocc = 7  HOMO = -0.348582843809396  LUMO = -0.0344446600303599
  beta  nocc = 7  HOMO = -0.348582806300339  LUMO = -0.0344444452103985
  alpha mo_energy =
[-15.71427485 -15.71422055  -0.99799475  -0.96492596  -0.5528642
  -0.55283174  -0.34858284  -0.03444466   0.10554027   0.10556036
   0.867539     0.86756125   0.89133344   0.97642707   1.00841374
   1.04497833   1.04499463   1.30855357   1.96919902   1.9837286
   1.98375295   2.00917203   2.02666161   2.02751778   2.07659993
   2.07687293   2.07689657   2.14877617]
  beta  mo_energy =
[-15.71427466 -15.71422074  -0.99799476  -0.96492596  -0.55286291
  -0.55283319  -0.34858281  -0.03444445   0.10554046   0.10556017
   0.86753975   0.86756039   0.89133349   0.97642709   1.00841375
   1.0449786    1.04499433   1.30855363   1.96919904   1.98372872
   1.98375288   2.00917203   2.02666161   2.02751777   2.07659994
   2.07687298   2.07689654   2.14877618]
multiplicity <S^2> = 2.0126228  2S+1 = 3.0084035
E1 = -166.9302725935543  Ecoul = 48.619492103173116
cycle= 9 E= -108.510780490381  delta_E= -7.4e-07  |g|= 0.000171  |ddm|= 0.00188
    CPU time for cycle= 9      0.22 sec, wall time      0.01 sec
  alpha nocc = 7  HOMO = -0.348581480728612  LUMO = -0.03444507510959
  beta  nocc = 7  HOMO = -0.348581480975422  LUMO = -0.0344450685812871
  alpha mo_energy =
[-15.71426009 -15.71420996  -0.99799138  -0.96492245  -0.55284348
  -0.5528367   -0.34858148  -0.03444508   0.10554855   0.10555283
   0.8675521    0.86755698   0.89133237   0.97643211   1.0084187
   1.04498782   1.04499139   1.30855313   1.96920299   1.98374251
   1.98374729   2.00917595   2.02666511   2.02752077   2.07660379
   2.07688367   2.07688881   2.1487781 ]
  beta  mo_energy =
[-15.71426008 -15.71420996  -0.99799137  -0.96492244  -0.55284317
  -0.55283702  -0.34858148  -0.03444507   0.10554868   0.10555269
   0.86755226   0.86755681   0.89133239   0.9764321    1.00841869
   1.04498782   1.04499139   1.30855315   1.96920299   1.9837425
   1.9837473    2.00917595   2.02666511   2.02752077   2.0766038
   2.0768835    2.07688898   2.1487781 ]
multiplicity <S^2> = 2.0126224  2S+1 = 3.0084032
E1 = -166.9302488645501  Ecoul = 48.619468168311286
cycle= 10 E= -108.510780696239  delta_E= -2.06e-07  |g|= 0.00014  |ddm|= 0.000749
    CPU time for cycle= 10      0.59 sec, wall time      0.02 sec
  alpha nocc = 7  HOMO = -0.348582444934555  LUMO = -0.0344507675939993
  beta  nocc = 7  HOMO = -0.348582537484536  LUMO = -0.034451058943365
  alpha mo_energy =
[-15.71427932 -15.71422167  -0.99799476  -0.9649278   -0.55286326
  -0.55281861  -0.34858244  -0.03445077   0.10553006   0.10555734
   0.8675368    0.86756729   0.89133108   0.97642622   1.00841351
   1.04497304   1.04499514   1.30855245   1.96919942   1.98372502
   1.98375817   2.0091725    2.02666085   2.0275169    2.07660135
   2.07686427   2.07689607   2.1487736 ]
  beta  mo_energy =
[-15.71427898 -15.714222    -0.99799475  -0.96492781  -0.55286124
  -0.5528204   -0.34858254  -0.03445106   0.10553026   0.10555715
   0.86753804   0.86756622   0.89133102   0.97642618   1.00841348
   1.0449735    1.04499473   1.30855236   1.96919939   1.98372509
   1.98375803   2.0091725    2.02666087   2.0275169    2.07660135
   2.07686439   2.07689591   2.14877358]
multiplicity <S^2> = 2.012623  2S+1 = 3.0084035
E1 = -166.93027422461583  Ecoul = 48.61949318659795
cycle= 11 E= -108.510781038018  delta_E= -3.42e-07  |g|= 5.28e-05  |ddm|= 0.00203
    CPU time for cycle= 11      0.23 sec, wall time      0.01 sec
  alpha nocc = 7  HOMO = -0.348580307498955  LUMO = -0.0344447200152426
  beta  nocc = 7  HOMO = -0.348580314883052  LUMO = -0.0344448203612499
  alpha mo_energy =
[-15.71426099 -15.71420902  -0.99799128  -0.96492278  -0.55284931
  -0.55282648  -0.34858031  -0.03444472   0.10554222   0.10555612
   0.86754697   0.86756261   0.8913331    0.9764312    1.00841808
   1.04498392   1.04499517   1.3085542    1.96920334   1.98373679
   1.98375359   2.00917618   2.02666533   2.02752111   2.07660668
   2.07687689   2.07689301   2.14877842]
  beta  mo_energy =
[-15.7142609  -15.71420911  -0.99799129  -0.96492278  -0.55284828
  -0.55282743  -0.34858031  -0.03444482   0.10554233   0.10555602
   0.86754759   0.86756206   0.89133307   0.9764312    1.00841808
   1.04498414   1.04499497   1.30855416   1.96920333   1.98373682
   1.98375355   2.00917618   2.02666534   2.02752111   2.07660668
   2.07687695   2.07689294   2.14877842]
multiplicity <S^2> = 2.0126226  2S+1 = 3.0084033
E1 = -166.93025041111247  Ecoul = 48.61946933491414
cycle= 12 E= -108.510781076198  delta_E= -3.82e-08  |g|= 1.1e-05  |ddm|= 0.000865
    CPU time for cycle= 12      0.23 sec, wall time      0.01 sec
  alpha nocc = 7  HOMO = -0.348581742173315  LUMO = -0.034445443575102
  beta  nocc = 7  HOMO = -0.348581738146043  LUMO = -0.0344454626986264
  alpha mo_energy =
[-15.71426588 -15.71421537  -0.99799274  -0.9649242   -0.55284438
  -0.55283485  -0.34858174  -0.03444544   0.10554437   0.10555055
   0.86755004   0.86755677   0.89133277   0.97642931   1.0084163
   1.04498495   1.04499031   1.30855368   1.96920177   1.9837401
   1.98374733   2.00917465   2.02666374   2.02751944   2.076605
   2.07687987   2.07688686   2.14877699]
  beta  mo_energy =
[-15.71426587 -15.71421538  -0.99799274  -0.96492421  -0.55284406
  -0.55283516  -0.34858174  -0.03444546   0.10554438   0.10555054
   0.86755023   0.86755659   0.89133275   0.97642932   1.00841631
   1.04498501   1.04499026   1.30855366   1.96920177   1.98374001
   1.98374742   2.00917465   2.02666374   2.02751944   2.076605
   2.07687979   2.07688694   2.14877699]
multiplicity <S^2> = 2.0126222  2S+1 = 3.008403
E1 = -166.9302571369073  Ecoul = 48.6194760604037
cycle= 13 E= -108.510781076504  delta_E= -3.05e-10  |g|= 4.97e-06  |ddm|= 5.6e-05
    CPU time for cycle= 13      0.34 sec, wall time      0.01 sec
  alpha nocc = 7  HOMO = -0.348581240163673  LUMO = -0.0344447484350062
  beta  nocc = 7  HOMO = -0.348581236960907  LUMO = -0.0344447569539149
  alpha mo_energy =
[-15.71426364 -15.71421369  -0.99799208  -0.96492347  -0.55284028
  -0.5528381   -0.34858124  -0.03444475   0.10554747   0.10554847
   0.86755245   0.86755495   0.89133318   0.97643002   1.00841697
   1.04498748   1.04498914   1.30855404   1.96920235   1.98374378
   1.98374481   2.00917522   2.02666433   2.02751999   2.07660556
   2.07688348   2.07688437   2.14877755]
  beta  mo_energy =
[-15.71426364 -15.71421369  -0.99799208  -0.96492347  -0.55284018
  -0.5528382   -0.34858124  -0.03444476   0.10554744   0.10554851
   0.86755249   0.86755491   0.89133317   0.97643002   1.00841697
   1.04498748   1.04498915   1.30855403   1.96920235   1.98374358
   1.98374501   2.00917522   2.02666433   2.02751999   2.07660556
   2.07688329   2.07688456   2.14877755]
multiplicity <S^2> = 2.0126221  2S+1 = 3.008403
E1 = -166.93025554188492  Ecoul = 48.61947446535376
Extra cycle  E= -108.510781076531  delta_E= -2.76e-11  |g|= 2.78e-06  |ddm|= 6.47e-06
    CPU time for scf_cycle      5.86 sec, wall time      0.20 sec
    CPU time for SCF      5.89 sec, wall time      0.20 sec
converged SCF energy = -108.510781076531  <S^2> = 2.0126221  2S+1 = 3.008403
davidson 0 1  |r|= 2.11  e= [1.57496466]  max|de|= 1.57  lindep= 0.681
davidson 1 2  |r|= 0.833  e= [0.57033839]  max|de|=   -1  lindep= 0.917
davidson 2 3  |r|= 0.61  e= [0.46311164]  max|de|= -0.107  lindep= 0.747
davidson 3 4  |r|= 0.263  e= [0.21149076]  max|de|= -0.252  lindep= 0.977
davidson 4 5  |r|= 0.513  e= [0.10326848]  max|de|= -0.108  lindep= 0.906
davidson 5 6  |r|= 0.641  e= [-0.49722265]  max|de|= -0.6  lindep= 0.92
davidson 6 7  |r|= 0.189  e= [-0.68659634]  max|de|= -0.189  lindep= 0.99
davidson 7 8  |r|= 0.0464  e= [-0.69763293]  max|de|= -0.011  lindep= 0.962
davidson 8 9  |r|= 0.0157  e= [-0.69824109]  max|de|= -0.000608  lindep= 0.937
root 0 converged  |r|= 0.00547  e= -0.6983266339475498  max|de|= -8.55e-05
converged 9 10  |r|= 0.00547  e= [-0.69832663]  max|de|= -8.55e-05
<class 'pyscf.scf.uhf.UHF'> wavefunction has an internal instability.
Try to optimize orbitals until stable, attempt 1


******** <class 'pyscf.scf.uhf.UHF'> ********
method = UHF
initial guess = minao
damping factor = 0
level_shift factor = 0
DIIS = <class 'pyscf.scf.diis.CDIIS'>
diis_start_cycle = 1
diis_space = 8
SCF conv_tol = 1e-09
SCF conv_tol_grad = None
SCF max_cycles = 50
direct_scf = True
direct_scf_tol = 1e-13
chkfile to save SCF result = /blue/bartlett/z.windom/MOLSSI_develop/test/build_T2_interfaces/RECORDS/verify_spin_CCD/pyscfCode/N2_equil_UHF/tmp7p3i90za
max_memory 4000 MB (current use 96 MB)
number electrons alpha = 7  beta = 7
Set gradient conv threshold to 3.16228e-05
E1 = -167.3454262600792  Ecoul = 48.90191001532115
init E= -108.643516244758
cond(S) = 12.29343002189421
    CPU time for initialize scf      0.68 sec, wall time      0.02 sec
  alpha nocc = 7  HOMO = -0.511690429045988  LUMO = 0.113232365455614
  beta  nocc = 7  HOMO = -0.511771150344392  LUMO = 0.113169039949172
  alpha mo_energy =
[-15.65742784 -15.63109653  -1.02604127  -0.88882383  -0.5423428
  -0.51936116  -0.51169043   0.11323237   0.13606711   0.14572279
   0.8796885    0.88638168   0.8932504    0.9763271    1.06248698
   1.0642706    1.07713017   1.32737074   1.95441986   1.97249094
   2.03773137   2.04329213   2.04390021   2.0524002    2.0570574
   2.0889289    2.14498723   2.18829097]
  beta  mo_energy =
[-15.6575126  -15.63102885  -1.02615023  -0.88873452  -0.5422651
  -0.51948485  -0.51177115   0.11316904   0.13612721   0.14576474
   0.87973798   0.88633765   0.89319154   0.97615391   1.06241858
   1.06442195   1.07719831   1.32734288   1.95438404   1.97246736
   2.03775186   2.04325947   2.04386657   2.05243277   2.05705728
   2.08889282   2.14503876   2.18832962]
multiplicity <S^2> = 2.9823711  2S+1 = 3.5957592
E1 = -167.3127233989483  Ecoul = 48.85427136217925
cycle= 1 E= -108.658452036769  delta_E= -0.0149  |g|= 0.0357  |ddm|= 0.141
    CPU time for cycle= 1      0.62 sec, wall time      0.02 sec
  alpha nocc = 7  HOMO = -0.5096485826022  LUMO = 0.110231792857247
  beta  nocc = 7  HOMO = -0.509697278347096  LUMO = 0.110222989955243
  alpha mo_energy =
[-15.66491074 -15.63662766  -1.02909893  -0.88913105  -0.54227341
  -0.53080213  -0.50964858   0.11023179   0.13459977   0.14204382
   0.88023388   0.88189349   0.89425255   0.97523209   1.05960161
   1.06391996   1.07524067   1.32599309   1.95171827   1.96988994
   2.03616887   2.04057554   2.04128621   2.05097254   2.0550782
   2.08614297   2.1431638    2.18602465]
  beta  mo_energy =
[-15.6649349  -15.63661456  -1.02912388  -0.88912348  -0.54223079
  -0.53085111  -0.50969728   0.11022299   0.1346069    0.14204367
   0.8802638    0.88187203   0.89421788   0.975212     1.05958577
   1.06392884   1.07525228   1.32598507   1.95172026   1.96989279
   2.03616546   2.04056974   2.04128575   2.05097169   2.05506999
   2.08613806   2.14316442   2.18602288]
multiplicity <S^2> = 2.982164  2S+1 = 3.595644
E1 = -167.3212710304563  Ecoul = 48.86158171476931
cycle= 2 E= -108.659689315687  delta_E= -0.00124  |g|= 0.0148  |ddm|= 0.0393
    CPU time for cycle= 2      0.63 sec, wall time      0.02 sec
  alpha nocc = 7  HOMO = -0.506242997346418  LUMO = 0.110209189231508
  beta  nocc = 7  HOMO = -0.506251566802679  LUMO = 0.110212403833098
  alpha mo_energy =
[-15.66394716 -15.63412604  -1.0295175   -0.88713087  -0.54019571
  -0.53611975  -0.506243     0.11020919   0.13508921   0.14230072
   0.88007775   0.88197843   0.89661218   0.97497905   1.05972358
   1.06521011   1.07614521   1.32664244   1.95189082   1.97016884
   2.03686878   2.04070507   2.04147409   2.05163855   2.05576549
   2.08621269   2.14386963   2.18656008]
  beta  mo_energy =
[-15.66394505 -15.63413244  -1.0295158   -0.88713977  -0.54019196
  -0.53612738  -0.50625157   0.1102124    0.13508582   0.14229661
   0.88007209   0.88198116   0.89660661   0.97498296   1.05972483
   1.06520223   1.07614102   1.32663879   1.95189383   1.97017098
   2.03686593   2.04070638   2.0414768    2.05163523   2.05576235
   2.08621427   2.14386486   2.18655609]
multiplicity <S^2> = 2.9843337  2S+1 = 3.5968507
E1 = -167.32254968994525  Ecoul = 48.86257250704478
cycle= 3 E= -108.6599771829  delta_E= -0.000288  |g|= 0.00347  |ddm|= 0.0255
    CPU time for cycle= 3      0.62 sec, wall time      0.02 sec
  alpha nocc = 7  HOMO = -0.505479488570785  LUMO = 0.110019720100021
  beta  nocc = 7  HOMO = -0.505479593816976  LUMO = 0.110021262480976
  alpha mo_energy =
[-15.66476362 -15.63436576  -1.03021776  -0.88667845  -0.5400897
  -0.53767746  -0.50547949   0.11001972   0.13490423   0.14260204
   0.87937133   0.88204032   0.89712526   0.97424567   1.05937405
   1.06559228   1.07606592   1.32657587   1.95163461   1.96997493
   2.03677927   2.04045591   2.04129118   2.05149606   2.05573917
   2.08596504   2.14384696   2.18651721]
  beta  mo_energy =
[-15.66475938 -15.63437056  -1.03021608  -0.88668136  -0.54009141
  -0.53767521  -0.50547959   0.11002126   0.13490262   0.1426008
   0.87937155   0.88203925   0.89712508   0.97424691   1.0593757
   1.06559106   1.07606358   1.32657486   1.95163562   1.96997562
   2.03677823   2.04045688   2.04129245   2.05149458   2.05573854
   2.08596614   2.14384546   2.1865162 ]
multiplicity <S^2> = 2.9858623  2S+1 = 3.5977005
E1 = -167.32533149381035  Ecoul = 48.865335823343706
cycle= 4 E= -108.659995670467  delta_E= -1.85e-05  |g|= 0.000774  |ddm|= 0.00709
    CPU time for cycle= 4      0.60 sec, wall time      0.02 sec
  alpha nocc = 7  HOMO = -0.505174219315888  LUMO = 0.110280523254974
  beta  nocc = 7  HOMO = -0.505173762360725  LUMO = 0.110280140827332
  alpha mo_energy =
[-15.66403281 -15.63358103  -1.03000262  -0.88635627  -0.5399695
  -0.53741382  -0.50517422   0.11028052   0.13516116   0.14291815
   0.87970746   0.88215414   0.89738066   0.97431204   1.05966329
   1.06593741   1.07639695   1.32687142   1.95188506   1.97023064
   2.03706318   2.04072316   2.04156569   2.05178121   2.05602332
   2.08624196   2.14414893   2.18682362]
  beta  mo_energy =
[-15.66403409 -15.63357966  -1.03000303  -0.88635577  -0.53997034
  -0.53741337  -0.50517376   0.11028014   0.13516149   0.14291854
   0.87970764   0.88215355   0.89738096   0.97431216   1.0596629
   1.0659379    1.07639734   1.32687155   1.95188469   1.97023035
   2.03706347   2.04072297   2.04156527   2.05178159   2.05602363
   2.08624167   2.14414937   2.18682397]
multiplicity <S^2> = 2.9859713  2S+1 = 3.5977611
E1 = -167.3252171015589  Ecoul = 48.86522071191216
cycle= 5 E= -108.659996389647  delta_E= -7.19e-07  |g|= 0.000215  |ddm|= 0.00129
    CPU time for cycle= 5      0.23 sec, wall time      0.01 sec
  alpha nocc = 7  HOMO = -0.505258220785162  LUMO = 0.110201319404065
  beta  nocc = 7  HOMO = -0.505258277344761  LUMO = 0.110201378838818
  alpha mo_energy =
[-15.66433719 -15.63389512  -1.03007723  -0.88644939  -0.54009456
  -0.53742151  -0.50525822   0.11020132   0.13508833   0.14282253
   0.87967237   0.88206416   0.89731515   0.97421371   1.05956309
   1.06586318   1.07629423   1.32681477   1.95180598   1.97014658
   2.03697841   2.04064224   2.04147721   2.05169886   2.05593507
   2.08615666   2.14405997   2.1867385 ]
  beta  mo_energy =
[-15.66433688 -15.63389535  -1.03007713  -0.88644931  -0.54009443
  -0.53742126  -0.50525828   0.11020138   0.13508827   0.14282247
   0.87967249   0.88206425   0.89731512   0.97421377   1.05956318
   1.06586321   1.07629418   1.32681479   1.95180608   1.97014666
   2.03697834   2.04064231   2.04147729   2.05169879   2.05593503
   2.08615671   2.1440599    2.18673846]
multiplicity <S^2> = 2.985931  2S+1 = 3.5977387
E1 = -167.3256047834332  Ecoul = 48.865608330386436
cycle= 6 E= -108.659996453047  delta_E= -6.34e-08  |g|= 4.98e-05  |ddm|= 0.000371
    CPU time for cycle= 6      0.23 sec, wall time      0.01 sec
  alpha nocc = 7  HOMO = -0.5052422589821  LUMO = 0.11022841840452
  beta  nocc = 7  HOMO = -0.505242217222933  LUMO = 0.110228402455534
  alpha mo_energy =
[-15.66424868 -15.63381273  -1.03004029  -0.88642925  -0.5400694
  -0.53737462  -0.50524226   0.11022842   0.13511459   0.14284285
   0.87970118   0.88208421   0.89732949   0.97423377   1.05959647
   1.06588786   1.07632521   1.32684027   1.95183641   1.97017576
   2.0370053    2.04067241   2.04150524   2.05172636   2.05596154
   2.08618626   2.14408629   2.18676623]
  beta  mo_energy =
[-15.6642487  -15.63381269  -1.03004028  -0.8864292   -0.54006937
  -0.53737463  -0.50524222   0.1102284    0.1351146    0.14284286
   0.87970119   0.88208424   0.89732951   0.97423376   1.05959647
   1.06588789   1.07632524   1.32684028   1.9518364    1.97017575
   2.0370053    2.04067242   2.04150523   2.05172638   2.05596155
   2.08618625   2.1440863    2.18676625]
multiplicity <S^2> = 2.985911  2S+1 = 3.5977276
E1 = -167.32553985364905  Ecoul = 48.865543397274834
cycle= 7 E= -108.659996456374  delta_E= -3.33e-09  |g|= 1.33e-05  |ddm|= 8.18e-05
    CPU time for cycle= 7      0.35 sec, wall time      0.01 sec
  alpha nocc = 7  HOMO = -0.505247394137794  LUMO = 0.110228015411248
  beta  nocc = 7  HOMO = -0.505247394257932  LUMO = 0.110228017652909
  alpha mo_energy =
[-15.66425067 -15.63381729  -1.03003966  -0.88643319  -0.54006582
  -0.53737508  -0.50524739   0.11022802   0.13511327   0.14284203
   0.87970178   0.8820865    0.89732602   0.9742337    1.05959614
   1.06588564   1.07632302   1.32683942   1.95183583   1.9701753
   2.03700414   2.04067175   2.04150507   2.05172496   2.05596056
   2.08618582   2.14408503   2.1867651 ]
  beta  mo_energy =
[-15.66425066 -15.6338173   -1.03003965  -0.8864332   -0.54006581
  -0.53737507  -0.50524739   0.11022802   0.13511327   0.14284203
   0.87970179   0.88208651   0.89732602   0.97423372   1.05959615
   1.06588562   1.07632301   1.32683942   1.95183584   1.9701753
   2.03700413   2.04067177   2.04150508   2.05172495   2.05596055
   2.08618582   2.14408502   2.1867651 ]
multiplicity <S^2> = 2.9859097  2S+1 = 3.5977269
E1 = -167.32553596177794  Ecoul = 48.86553950515675
cycle= 8 E= -108.659996456621  delta_E= -2.47e-10  |g|= 3.39e-06  |ddm|= 2.64e-05
    CPU time for cycle= 8      0.45 sec, wall time      0.02 sec
  alpha nocc = 7  HOMO = -0.50524791040823  LUMO = 0.110228060367196
  beta  nocc = 7  HOMO = -0.505247909090262  LUMO = 0.110228056414157
  alpha mo_energy =
[-15.6642505  -15.63381749  -1.03003929  -0.88643341  -0.54006537
  -0.53737451  -0.50524791   0.11022806   0.13511324   0.14284205
   0.87970154   0.88208674   0.89732564   0.97423369   1.05959623
   1.06588548   1.07632288   1.32683939   1.95183587   1.97017533
   2.03700407   2.04067179   2.04150511   2.05172487   2.05596052
   2.08618585   2.14408497   2.18676505]
  beta  mo_energy =
[-15.66425049 -15.63381749  -1.03003929  -0.88643341  -0.54006537
  -0.53737451  -0.50524791   0.11022806   0.13511324   0.14284206
   0.87970154   0.88208675   0.89732563   0.9742337    1.05959624
   1.06588547   1.07632288   1.3268394    1.95183587   1.97017533
   2.03700406   2.04067181   2.04150511   2.05172487   2.05596052
   2.08618585   2.14408497   2.18676506]
multiplicity <S^2> = 2.9859099  2S+1 = 3.597727
E1 = -167.32553652801852  Ecoul = 48.86554007137939
Extra cycle  E= -108.659996456639  delta_E= -1.79e-11  |g|= 2.22e-06  |ddm|= 4.24e-06
    CPU time for scf_cycle      4.82 sec, wall time      0.16 sec
    CPU time for SCF      4.89 sec, wall time      0.16 sec
converged SCF energy = -108.659996456639  <S^2> = 2.9859099  2S+1 = 3.597727
davidson 0 1  |r|= 2.29  e= [2.01211322]  max|de|= 2.01  lindep= 0.994
davidson 1 2  |r|= 0.602  e= [1.22115158]  max|de|= -0.791  lindep= 0.87
davidson 2 3  |r|= 0.345  e= [0.55963342]  max|de|= -0.662  lindep= 0.997
davidson 3 4  |r|= 0.132  e= [0.29221323]  max|de|= -0.267  lindep= 0.998
davidson 4 5  |r|= 0.641  e= [0.19238768]  max|de|= -0.0998  lindep= 0.891
davidson 5 6  |r|= 0.178  e= [0.01650819]  max|de|= -0.176  lindep= 0.987
davidson 6 7  |r|= 0.0491  e= [0.00480396]  max|de|= -0.0117  lindep= 0.989
davidson 7 8  |r|= 0.0133  e= [0.00397575]  max|de|= -0.000828  lindep= 0.971
root 0 converged  |r|= 0.00808  e= 0.003876787976320503  max|de|= -9.9e-05
converged 8 9  |r|= 0.00808  e= [0.00387679]  max|de|= -9.9e-05
<class 'pyscf.scf.uhf.UHF'> wavefunction is stable in the internal stability analysis
(28, 28)
(2, 28, 28)
mo energy: (28,)
total 2e- integral energy: 49.545813342739216
(28, 28, 28, 28)
final rhf/uhf energy: -108.65999645663908
slice(None, 7, None) slice(7, None, None)
eabij_aa: [[[[-0.03169677 -0.03172737 -0.05912001 ... -0.06088365 -0.06089362
    -0.06101298]
   [-0.03172737 -0.03175804 -0.05922657 ... -0.06099666 -0.06100668
    -0.06112648]
   [-0.05912001 -0.05922657 -0.43849365 ... -0.55848425 -0.55932481
    -0.56955933]
   ...
   [-0.06088365 -0.06099666 -0.55848425 ... -0.76888367 -0.77047776
    -0.79003332]
   [-0.06089362 -0.06100668 -0.55932481 ... -0.77047776 -0.77207847
    -0.7917164 ]
   [-0.06101298 -0.06112648 -0.56955933 ... -0.79003332 -0.7917164
    -0.8123794 ]]

  [[-0.03167179 -0.03170234 -0.05903316 ... -0.06079154 -0.06080149
    -0.06092049]
   [-0.03170234 -0.03173296 -0.05913941 ... -0.06090422 -0.0609142
    -0.06103364]
   [-0.05903316 -0.05913941 -0.43376046 ... -0.55082884 -0.55164649
    -0.56159945]
   ...
   [-0.06079154 -0.06090422 -0.55082884 ... -0.7544482  -0.75598293
    -0.77480064]
   [-0.06080149 -0.0609142  -0.55164649 ... -0.75598293 -0.75752392
    -0.77641938]
   [-0.06092049 -0.06103364 -0.56159945 ... -0.77480064 -0.77641938
    -0.7962816 ]]

  [[-0.03166404 -0.03169458 -0.05900624 ... -0.06076299 -0.06077293
    -0.06089181]
   [-0.03169458 -0.03172518 -0.05911239 ... -0.06087556 -0.06088554
    -0.06100486]
   [-0.05900624 -0.05911239 -0.43231116 ... -0.54849376 -0.5493045
    -0.55917237]
   ...
   [-0.06076299 -0.06087556 -0.54849376 ... -0.75007452 -0.7515915
    -0.77018853]
   [-0.06077293 -0.06088554 -0.5493045  ... -0.7515915  -0.75311462
    -0.77178804]
   [-0.06089181 -0.06100486 -0.55917237 ... -0.77018853 -0.77178804
    -0.79141102]]

  ...

  [[-0.02982856 -0.02985566 -0.05293609 ... -0.05434567 -0.05435362
    -0.0544487 ]
   [-0.02985566 -0.02988282 -0.05302151 ... -0.0544357  -0.05444368
    -0.05453907]
   [-0.05293609 -0.05302151 -0.23493522 ... -0.26549716 -0.26568697
    -0.2679743 ]
   ...
   [-0.05434567 -0.0544357  -0.26549716 ... -0.30519956 -0.30545042
    -0.30847753]
   [-0.05435362 -0.05444368 -0.26568697 ... -0.30545042 -0.30570168
    -0.3087338 ]
   [-0.0544487  -0.05453907 -0.2679743  ... -0.30847753 -0.3087338
    -0.31182668]]

  [[-0.02977714 -0.02980414 -0.05277434 ... -0.0541752  -0.0541831
    -0.05427759]
   [-0.02980414 -0.0298312  -0.05285924 ... -0.05426467 -0.0542726
    -0.05436739]
   [-0.05277434 -0.05285924 -0.23178239 ... -0.26147771 -0.26166182
    -0.26388008]
   ...
   [-0.0541752  -0.05426467 -0.26147771 ... -0.29990009 -0.30014231
    -0.30306462]
   [-0.0541831  -0.0542726  -0.26166182 ... -0.30014231 -0.30038491
    -0.30331197]
   [-0.05427759 -0.05436739 -0.26388008 ... -0.30306462 -0.30331197
    -0.30629665]]

  [[-0.02973934 -0.02976628 -0.05265574 ... -0.05405023 -0.05405809
    -0.05415214]
   [-0.02976628 -0.02979327 -0.05274025 ... -0.05413928 -0.05414717
    -0.05424153]
   [-0.05265574 -0.05274025 -0.22951194 ... -0.25859186 -0.25877192
    -0.26094125]
   ...
   [-0.05405023 -0.05413928 -0.25859186 ... -0.29610996 -0.29634608
    -0.29919459]
   [-0.05405809 -0.05414717 -0.25877192 ... -0.29634608 -0.29658259
    -0.29943567]
   [-0.05415214 -0.05424153 -0.26094125 ... -0.29919459 -0.29943567
    -0.30234417]]]


 [[[-0.03167179 -0.03170234 -0.05903316 ... -0.06079154 -0.06080149
    -0.06092049]
   [-0.03170234 -0.03173296 -0.05913941 ... -0.06090422 -0.0609142
    -0.06103364]
   [-0.05903316 -0.05913941 -0.43376046 ... -0.55082884 -0.55164649
    -0.56159945]
   ...
   [-0.06079154 -0.06090422 -0.55082884 ... -0.7544482  -0.75598293
    -0.77480064]
   [-0.06080149 -0.0609142  -0.55164649 ... -0.75598293 -0.75752392
    -0.77641938]
   [-0.06092049 -0.06103364 -0.56159945 ... -0.77480064 -0.77641938
    -0.7962816 ]]

  [[-0.03164684 -0.03167735 -0.05894657 ... -0.06069971 -0.06070963
    -0.06082827]
   [-0.03167735 -0.03170792 -0.0590525  ... -0.06081205 -0.060822
    -0.06094108]
   [-0.05894657 -0.0590525  -0.42912836 ... -0.54338047 -0.54417614
    -0.553859  ]
   ...
   [-0.06069971 -0.06081205 -0.54338047 ... -0.74054478 -0.74202341
    -0.76014426]
   [-0.06070963 -0.060822   -0.54417614 ... -0.74202341 -0.74350796
    -0.76170228]
   [-0.06082827 -0.06094108 -0.553859   ... -0.76014426 -0.76170228
    -0.78080939]]

  [[-0.03163911 -0.0316696  -0.05891972 ... -0.06067125 -0.06068116
    -0.06079968]
   [-0.0316696  -0.03170015 -0.05902556 ... -0.06078348 -0.06079342
    -0.06091239]
   [-0.05891972 -0.05902556 -0.4277098  ... -0.54110798 -0.54189701
    -0.55149821]
   ...
   [-0.06067125 -0.06078348 -0.54110798 ... -0.73633037 -0.73779221
    -0.75570448]
   [-0.06068116 -0.06079342 -0.54189701 ... -0.73779221 -0.73925986
    -0.75724434]
   [-0.06079968 -0.06091239 -0.55149821 ... -0.75570448 -0.75724434
    -0.77612568]]

  ...

  [[-0.02980644 -0.0298335  -0.05286645 ... -0.05427227 -0.0542802
    -0.05437502]
   [-0.0298335  -0.02986061 -0.05295164 ... -0.05436206 -0.05437001
    -0.05446515]
   [-0.05286645 -0.05295164 -0.23356968 ... -0.26375455 -0.26394188
    -0.26619913]
   ...
   [-0.05427227 -0.05436206 -0.26375455 ... -0.30289906 -0.30314614
    -0.30612754]
   [-0.0542802  -0.05437001 -0.26394188 ... -0.30314614 -0.30339363
    -0.30637992]
   [-0.05437502 -0.05446515 -0.26619913 ... -0.30612754 -0.30637992
    -0.30942557]]

  [[-0.02975509 -0.02978206 -0.05270512 ... -0.05410227 -0.05411014
    -0.05420437]
   [-0.02978206 -0.02980907 -0.0527898  ... -0.05419149 -0.0541994
    -0.05429393]
   [-0.05270512 -0.0527898  -0.23045315 ... -0.2597873  -0.25996903
    -0.26215856]
   ...
   [-0.05410227 -0.05419149 -0.2597873  ... -0.2976785  -0.29791713
    -0.30079607]
   [-0.05411014 -0.0541994  -0.25996903 ... -0.29791713 -0.29815615
    -0.30103973]
   [-0.05420437 -0.05429393 -0.26215856 ... -0.30079607 -0.30103973
    -0.30397964]]

  [[-0.02971735 -0.02974425 -0.05258683 ... -0.05397763 -0.05398547
    -0.05407926]
   [-0.02974425 -0.0297712  -0.05267112 ... -0.05406644 -0.05407431
    -0.05416841]
   [-0.05258683 -0.05267112 -0.22820854 ... -0.25693843 -0.2571162
    -0.25925774]
   ...
   [-0.05397763 -0.05406644 -0.25693843 ... -0.29394396 -0.29417664
    -0.2969834 ]
   [-0.05398547 -0.05407431 -0.2571162  ... -0.29417664 -0.29440969
    -0.29722092]
   [-0.05407926 -0.05416841 -0.25925774 ... -0.2969834  -0.29722092
    -0.30008635]]]


 [[[-0.03166404 -0.03169458 -0.05900624 ... -0.06076299 -0.06077293
    -0.06089181]
   [-0.03169458 -0.03172518 -0.05911239 ... -0.06087556 -0.06088554
    -0.06100486]
   [-0.05900624 -0.05911239 -0.43231116 ... -0.54849376 -0.5493045
    -0.55917237]
   ...
   [-0.06076299 -0.06087556 -0.54849376 ... -0.75007452 -0.7515915
    -0.77018853]
   [-0.06077293 -0.06088554 -0.5493045  ... -0.7515915  -0.75311462
    -0.77178804]
   [-0.06089181 -0.06100486 -0.55917237 ... -0.77018853 -0.77178804
    -0.79141102]]

  [[-0.03163911 -0.0316696  -0.05891972 ... -0.06067125 -0.06068116
    -0.06079968]
   [-0.0316696  -0.03170015 -0.05902556 ... -0.06078348 -0.06079342
    -0.06091239]
   [-0.05891972 -0.05902556 -0.4277098  ... -0.54110798 -0.54189701
    -0.55149821]
   ...
   [-0.06067125 -0.06078348 -0.54110798 ... -0.73633037 -0.73779221
    -0.75570448]
   [-0.06068116 -0.06079342 -0.54189701 ... -0.73779221 -0.73925986
    -0.75724434]
   [-0.06079968 -0.06091239 -0.55149821 ... -0.75570448 -0.75724434
    -0.77612568]]

  [[-0.03163137 -0.03166185 -0.05889291 ... -0.06064281 -0.06065271
    -0.06077113]
   [-0.03166185 -0.03169239 -0.05899865 ... -0.06075494 -0.06076487
    -0.06088373]
   [-0.05889291 -0.05899865 -0.42630058 ... -0.53885443 -0.53963689
    -0.54915747]
   ...
   [-0.06064281 -0.06075494 -0.53885443 ... -0.73216366 -0.73360898
    -0.75131627]
   [-0.06065271 -0.06076487 -0.53963689 ... -0.73360898 -0.73506002
    -0.75283828]
   [-0.06077113 -0.06088373 -0.54915747 ... -0.75131627 -0.75283828
    -0.77149783]]

  ...

  [[-0.02979957 -0.02982662 -0.05284486 ... -0.05424952 -0.05425744
    -0.05435218]
   [-0.02982662 -0.02985372 -0.05292998 ... -0.05433923 -0.05434718
    -0.05444223]
   [-0.05284486 -0.05292998 -0.23314879 ... -0.26321798 -0.26340454
    -0.26565257]
   ...
   [-0.05424952 -0.05433923 -0.26321798 ... -0.30219162 -0.30243754
    -0.30540495]
   [-0.05425744 -0.05434718 -0.26340454 ... -0.30243754 -0.30268387
    -0.30565614]
   [-0.05435218 -0.05444223 -0.26565257 ... -0.30540495 -0.30565614
    -0.30868735]]

  [[-0.02974825 -0.0297752  -0.05268366 ... -0.05407965 -0.05408752
    -0.05418167]
   [-0.0297752  -0.02980221 -0.05276827 ... -0.0541688  -0.0541767
    -0.05427116]
   [-0.05268366 -0.05276827 -0.23004341 ... -0.25926673 -0.25944774
    -0.26162845]
   ...
   [-0.05407965 -0.0541688  -0.25926673 ... -0.2969952  -0.29723274
    -0.3000984 ]
   [-0.05408752 -0.0541767  -0.25944774 ... -0.29723274 -0.29747066
    -0.30034094]
   [-0.05418167 -0.05427116 -0.26162845 ... -0.3000984  -0.30034094
    -0.30326714]]

  [[-0.02971052 -0.02973741 -0.05256547 ... -0.05395512 -0.05396295
    -0.05405667]
   [-0.02973741 -0.02976435 -0.05264969 ... -0.05404386 -0.05405172
    -0.05414574]
   [-0.05256547 -0.05264969 -0.22780674 ... -0.25642921 -0.25660627
    -0.25873929]
   ...
   [-0.05395512 -0.05404386 -0.25642921 ... -0.29327768 -0.29350931
    -0.29630329]
   [-0.05396295 -0.05405172 -0.25660627 ... -0.29350931 -0.2937413
    -0.29653972]
   [-0.05405667 -0.05414574 -0.25873929 ... -0.29630329 -0.29653972
    -0.29939197]]]


 ...


 [[[-0.02982856 -0.02985566 -0.05293609 ... -0.05434567 -0.05435362
    -0.0544487 ]
   [-0.02985566 -0.02988282 -0.05302151 ... -0.0544357  -0.05444368
    -0.05453907]
   [-0.05293609 -0.05302151 -0.23493522 ... -0.26549716 -0.26568697
    -0.2679743 ]
   ...
   [-0.05434567 -0.0544357  -0.26549716 ... -0.30519956 -0.30545042
    -0.30847753]
   [-0.05435362 -0.05444368 -0.26568697 ... -0.30545042 -0.30570168
    -0.3087338 ]
   [-0.0544487  -0.05453907 -0.2679743  ... -0.30847753 -0.3087338
    -0.31182668]]

  [[-0.02980644 -0.0298335  -0.05286645 ... -0.05427227 -0.0542802
    -0.05437502]
   [-0.0298335  -0.02986061 -0.05295164 ... -0.05436206 -0.05437001
    -0.05446515]
   [-0.05286645 -0.05295164 -0.23356968 ... -0.26375455 -0.26394188
    -0.26619913]
   ...
   [-0.05427227 -0.05436206 -0.26375455 ... -0.30289906 -0.30314614
    -0.30612754]
   [-0.0542802  -0.05437001 -0.26394188 ... -0.30314614 -0.30339363
    -0.30637992]
   [-0.05437502 -0.05446515 -0.26619913 ... -0.30612754 -0.30637992
    -0.30942557]]

  [[-0.02979957 -0.02982662 -0.05284486 ... -0.05424952 -0.05425744
    -0.05435218]
   [-0.02982662 -0.02985372 -0.05292998 ... -0.05433923 -0.05434718
    -0.05444223]
   [-0.05284486 -0.05292998 -0.23314879 ... -0.26321798 -0.26340454
    -0.26565257]
   ...
   [-0.05424952 -0.05433923 -0.26321798 ... -0.30219162 -0.30243754
    -0.30540495]
   [-0.05425744 -0.05434718 -0.26340454 ... -0.30243754 -0.30268387
    -0.30565614]
   [-0.05435218 -0.05444223 -0.26565257 ... -0.30540495 -0.30565614
    -0.30868735]]

  ...

  [[-0.02816832 -0.02819249 -0.04792333 ... -0.04907569 -0.04908217
    -0.04915969]
   [-0.02819249 -0.0282167  -0.04799333 ... -0.0491491  -0.0491556
    -0.04923335]
   [-0.04792333 -0.04799333 -0.16045054 ... -0.1741409  -0.17422254
    -0.17520318]
   ...
   [-0.04907569 -0.0491491  -0.1741409  ... -0.19038544 -0.19048303
    -0.19165588]
   [-0.04908217 -0.0491556  -0.17422254 ... -0.19048303 -0.19058071
    -0.19175477]
   [-0.04915969 -0.04923335 -0.17520318 ... -0.19165588 -0.19175477
    -0.19294338]]

  [[-0.02812246 -0.02814655 -0.04779073 ... -0.04893664 -0.04894308
    -0.04902016]
   [-0.02814655 -0.02817068 -0.04786034 ... -0.04900963 -0.04901609
    -0.0490934 ]
   [-0.04779073 -0.04786034 -0.15897368 ... -0.17240263 -0.17248265
    -0.17344375]
   ...
   [-0.04893664 -0.04900963 -0.17240263 ... -0.18830968 -0.18840514
    -0.18955247]
   [-0.04894308 -0.04901609 -0.17248265 ... -0.18840514 -0.18850071
    -0.1896492 ]
   [-0.04902016 -0.0490934  -0.17344375 ... -0.18955247 -0.1896492
    -0.19081178]]

  [[-0.02808874 -0.02811277 -0.04769345 ... -0.04883464 -0.04884106
    -0.04891782]
   [-0.02811277 -0.02813685 -0.04776277 ... -0.04890733 -0.04891376
    -0.04899075]
   [-0.04769345 -0.04776277 -0.15790231 ... -0.17114333 -0.17122218
    -0.17216925]
   ...
   [-0.04883464 -0.04890733 -0.17114333 ... -0.18680828 -0.18690224
    -0.18803128]
   [-0.04884106 -0.04891376 -0.17122218 ... -0.18690224 -0.18699628
    -0.18812646]
   [-0.04891782 -0.04899075 -0.17216925 ... -0.18803128 -0.18812646
    -0.18927039]]]


 [[[-0.02977714 -0.02980414 -0.05277434 ... -0.0541752  -0.0541831
    -0.05427759]
   [-0.02980414 -0.0298312  -0.05285924 ... -0.05426467 -0.0542726
    -0.05436739]
   [-0.05277434 -0.05285924 -0.23178239 ... -0.26147771 -0.26166182
    -0.26388008]
   ...
   [-0.0541752  -0.05426467 -0.26147771 ... -0.29990009 -0.30014231
    -0.30306462]
   [-0.0541831  -0.0542726  -0.26166182 ... -0.30014231 -0.30038491
    -0.30331197]
   [-0.05427759 -0.05436739 -0.26388008 ... -0.30306462 -0.30331197
    -0.30629665]]

  [[-0.02975509 -0.02978206 -0.05270512 ... -0.05410227 -0.05411014
    -0.05420437]
   [-0.02978206 -0.02980907 -0.0527898  ... -0.05419149 -0.0541994
    -0.05429393]
   [-0.05270512 -0.0527898  -0.23045315 ... -0.2597873  -0.25996903
    -0.26215856]
   ...
   [-0.05410227 -0.05419149 -0.2597873  ... -0.2976785  -0.29791713
    -0.30079607]
   [-0.05411014 -0.0541994  -0.25996903 ... -0.29791713 -0.29815615
    -0.30103973]
   [-0.05420437 -0.05429393 -0.26215856 ... -0.30079607 -0.30103973
    -0.30397964]]

  [[-0.02974825 -0.0297752  -0.05268366 ... -0.05407965 -0.05408752
    -0.05418167]
   [-0.0297752  -0.02980221 -0.05276827 ... -0.0541688  -0.0541767
    -0.05427116]
   [-0.05268366 -0.05276827 -0.23004341 ... -0.25926673 -0.25944774
    -0.26162845]
   ...
   [-0.05407965 -0.0541688  -0.25926673 ... -0.2969952  -0.29723274
    -0.3000984 ]
   [-0.05408752 -0.0541767  -0.25944774 ... -0.29723274 -0.29747066
    -0.30034094]
   [-0.05418167 -0.05427116 -0.26162845 ... -0.3000984  -0.30034094
    -0.30326714]]

  ...

  [[-0.02812246 -0.02814655 -0.04779073 ... -0.04893664 -0.04894308
    -0.04902016]
   [-0.02814655 -0.02817068 -0.04786034 ... -0.04900963 -0.04901609
    -0.0490934 ]
   [-0.04779073 -0.04786034 -0.15897368 ... -0.17240263 -0.17248265
    -0.17344375]
   ...
   [-0.04893664 -0.04900963 -0.17240263 ... -0.18830968 -0.18840514
    -0.18955247]
   [-0.04894308 -0.04901609 -0.17248265 ... -0.18840514 -0.18850071
    -0.1896492 ]
   [-0.04902016 -0.0490934  -0.17344375 ... -0.18955247 -0.1896492
    -0.19081178]]

  [[-0.02807674 -0.02810075 -0.04765885 ... -0.04879837 -0.04880478
    -0.04888143]
   [-0.02810075 -0.0281248  -0.04772808 ... -0.04887095 -0.04887738
    -0.04895425]
   [-0.04765885 -0.04772808 -0.15752376 ... -0.17069872 -0.17077717
    -0.1717193 ]
   ...
   [-0.04879837 -0.04887095 -0.17069872 ... -0.18627869 -0.18637211
    -0.18749473]
   [-0.04880478 -0.04887738 -0.17077717 ... -0.18637211 -0.18646562
    -0.18758937]
   [-0.04888143 -0.04895425 -0.1717193  ... -0.18749473 -0.18758937
    -0.18872676]]

  [[-0.02804314 -0.02806709 -0.04756211 ... -0.04869695 -0.04870333
    -0.04877966]
   [-0.02806709 -0.02809108 -0.04763105 ... -0.04876923 -0.04877563
    -0.04885218]
   [-0.04756211 -0.04763105 -0.15647178 ... -0.1694641  -0.16954142
    -0.17046993]
   ...
   [-0.04869695 -0.04876923 -0.1694641  ... -0.18480938 -0.18490133
    -0.18600625]
   [-0.04870333 -0.04877563 -0.16954142 ... -0.18490133 -0.18499337
    -0.1860994 ]
   [-0.04877966 -0.04885218 -0.17046993 ... -0.18600625 -0.1860994
    -0.18721873]]]


 [[[-0.02973934 -0.02976628 -0.05265574 ... -0.05405023 -0.05405809
    -0.05415214]
   [-0.02976628 -0.02979327 -0.05274025 ... -0.05413928 -0.05414717
    -0.05424153]
   [-0.05265574 -0.05274025 -0.22951194 ... -0.25859186 -0.25877192
    -0.26094125]
   ...
   [-0.05405023 -0.05413928 -0.25859186 ... -0.29610996 -0.29634608
    -0.29919459]
   [-0.05405809 -0.05414717 -0.25877192 ... -0.29634608 -0.29658259
    -0.29943567]
   [-0.05415214 -0.05424153 -0.26094125 ... -0.29919459 -0.29943567
    -0.30234417]]

  [[-0.02971735 -0.02974425 -0.05258683 ... -0.05397763 -0.05398547
    -0.05407926]
   [-0.02974425 -0.0297712  -0.05267112 ... -0.05406644 -0.05407431
    -0.05416841]
   [-0.05258683 -0.05267112 -0.22820854 ... -0.25693843 -0.2571162
    -0.25925774]
   ...
   [-0.05397763 -0.05406644 -0.25693843 ... -0.29394396 -0.29417664
    -0.2969834 ]
   [-0.05398547 -0.05407431 -0.2571162  ... -0.29417664 -0.29440969
    -0.29722092]
   [-0.05407926 -0.05416841 -0.25925774 ... -0.2969834  -0.29722092
    -0.30008635]]

  [[-0.02971052 -0.02973741 -0.05256547 ... -0.05395512 -0.05396295
    -0.05405667]
   [-0.02973741 -0.02976435 -0.05264969 ... -0.05404386 -0.05405172
    -0.05414574]
   [-0.05256547 -0.05264969 -0.22780674 ... -0.25642921 -0.25660627
    -0.25873929]
   ...
   [-0.05395512 -0.05404386 -0.25642921 ... -0.29327768 -0.29350931
    -0.29630329]
   [-0.05396295 -0.05405172 -0.25660627 ... -0.29350931 -0.2937413
    -0.29653972]
   [-0.05405667 -0.05414574 -0.25873929 ... -0.29630329 -0.29653972
    -0.29939197]]

  ...

  [[-0.02808874 -0.02811277 -0.04769345 ... -0.04883464 -0.04884106
    -0.04891782]
   [-0.02811277 -0.02813685 -0.04776277 ... -0.04890733 -0.04891376
    -0.04899075]
   [-0.04769345 -0.04776277 -0.15790231 ... -0.17114333 -0.17122218
    -0.17216925]
   ...
   [-0.04883464 -0.04890733 -0.17114333 ... -0.18680828 -0.18690224
    -0.18803128]
   [-0.04884106 -0.04891376 -0.17122218 ... -0.18690224 -0.18699628
    -0.18812646]
   [-0.04891782 -0.04899075 -0.17216925 ... -0.18803128 -0.18812646
    -0.18927039]]

  [[-0.02804314 -0.02806709 -0.04756211 ... -0.04869695 -0.04870333
    -0.04877966]
   [-0.02806709 -0.02809108 -0.04763105 ... -0.04876923 -0.04877563
    -0.04885218]
   [-0.04756211 -0.04763105 -0.15647178 ... -0.1694641  -0.16954142
    -0.17046993]
   ...
   [-0.04869695 -0.04876923 -0.1694641  ... -0.18480938 -0.18490133
    -0.18600625]
   [-0.04870333 -0.04877563 -0.16954142 ... -0.18490133 -0.18499337
    -0.1860994 ]
   [-0.04877966 -0.04885218 -0.17046993 ... -0.18600625 -0.1860994
    -0.18721873]]

  [[-0.02800961 -0.02803351 -0.04746576 ... -0.04859595 -0.04860231
    -0.04867831]
   [-0.02803351 -0.02805744 -0.04753442 ... -0.04866793 -0.0486743
    -0.04875053]
   [-0.04746576 -0.04753442 -0.15543376 ... -0.16824722 -0.16832342
    -0.16923861]
   ...
   [-0.04859595 -0.04866793 -0.16824722 ... -0.18336307 -0.18345359
    -0.18454123]
   [-0.04860231 -0.0486743  -0.16832342 ... -0.18345359 -0.18354419
    -0.18463291]
   [-0.04867831 -0.04875053 -0.16923861 ... -0.18454123 -0.18463291
    -0.18573462]]]] (21, 21, 7, 7)
hf energy: -108.65999645663912
nuclear repulsion: 9.8
(28, 28, 28, 28)
initial energy: -118.45999645663909
    ==> CCSDT amplitude equations <==

     Iter              Corr. Energy                 |dE|    |dT|

there zww hi
still here
hi
        0      -0.136603810714       0.136603810715       1.632011449560

there zww hi
still here
hi
        1      -0.165260645644       0.028656834930       1.868157500355

there zww hi
still here
hi
        2      -0.173763795813       0.008503150169       1.921884964881

there zww hi
still here
hi
        3      -0.177961688092       0.004197892279       1.949968058410

there zww hi
still here
hi
        4      -0.181009678613       0.003047990521       1.975521222932

there zww hi
still here
hi
        5      -0.226447441766       0.045437763153       2.002055758685

there zww hi
still here
hi
        6      -0.215656653192       0.010790788574       2.715009609104

there zww hi
still here
hi
        7      -0.221750123561       0.006093470369       2.551177863610

there zww hi
still here
hi
        8      -0.225717497997       0.003967374436       2.671094482472

there zww hi
still here
hi
        9      -0.222956924558       0.002760573439       2.746541654878

there zww hi
still here
hi
       10      -0.223741707194       0.000784782636       2.691189935044

there zww hi
still here
hi
       11      -0.223608622327       0.000133084867       2.708399357456

there zww hi
still here
hi
       12      -0.223259401404       0.000349220923       2.705131523344

there zww hi
still here
hi
       13      -0.223649499593       0.000390098189       2.698655659899

there zww hi
still here
hi
       14      -0.224066533189       0.000417033596       2.706792353219

there zww hi
still here
hi
       15      -0.223919860036       0.000146673153       2.714799404189

there zww hi
still here
hi
       16      -0.223647675787       0.000272184249       2.712192466544

there zww hi
still here
hi
       17      -0.223673715713       0.000026039926       2.707238016104

there zww hi
still here
hi
       18      -0.223777540249       0.000103824535       2.707807495973

there zww hi
still here
hi
       19      -0.223622301588       0.000155238661       2.709902200034

there zww hi
still here
hi
       20      -0.223601018459       0.000021283129       2.707086159452

there zww hi
still here
hi
       21      -0.223600555721       0.000000462738       2.706736916478

there zww hi
still here
hi
       22      -0.223601750628       0.000001194907       2.706741186777

there zww hi
still here
hi
       23      -0.223599587433       0.000002163195       2.706756600122

there zww hi
still here
hi
       24      -0.223600647906       0.000001060473       2.706709618907

there zww hi
still here
hi
       25      -0.223600005459       0.000000642447       2.706770019131

there zww hi
still here
hi
       26      -0.223599029876       0.000000975583       2.706770399741

there zww hi
still here
hi
       27      -0.223598421131       0.000000608745       2.706741476949

there zww hi
still here
hi
       28      -0.223598660274       0.000000239143       2.706723657049

there zww hi
still here
hi
       29      -0.223599000091       0.000000339817       2.706730926814

there zww hi
still here
hi
       30      -0.223599011461       0.000000011371       2.706740504904

there zww hi
still here
hi
       31      -0.223598978193       0.000000033269       2.706739944730

there zww hi
still here
hi
       32      -0.223598985978       0.000000007786       2.706739184340

there zww hi
still here
hi
       33      -0.223598955376       0.000000030602       2.706739675506

there zww hi
still here
hi
       34      -0.223598936247       0.000000019129       2.706739235969

there zww hi
still here
hi
       35      -0.223598895779       0.000000040468       2.706738640311

there zww hi
still here
hi
       36      -0.223598906262       0.000000010483       2.706737683620

there zww hi
still here
hi
       37      -0.223598929024       0.000000022761       2.706738067048

there zww hi
still here
hi
       38      -0.223598940183       0.000000011159       2.706738587766

there zww hi
still here
hi
       39      -0.223598943180       0.000000002998       2.706738775440

there zww hi
still here
hi
       40      -0.223598942171       0.000000001009       2.706738799088

there zww hi
still here
hi
       41      -0.223598940405       0.000000001766       2.706738763604

there zww hi
still here
hi
       42      -0.223598938766       0.000000001639       2.706738721135

there zww hi
still here
hi
       43      -0.223598938230       0.000000000536       2.706738680755

there zww hi
still here
hi
       44      -0.223598938046       0.000000000183       2.706738668262

there zww hi
still here
hi
       45      -0.223598938519       0.000000000473       2.706738664274

there zww hi
still here
hi
       46      -0.223598938719       0.000000000200       2.706738673604

there zww hi
still here
hi
       47      -0.223598938721       0.000000000002       2.706738675046








Final, total correlated energy: -108.8835953953605
Final CCD correlation contribution: -0.2235989387213806
