#INFO: **** input file is /blue/bartlett/z.windom/MOLSSI_develop/test/build_T2_interfaces/RECORDS/verify_spin_CCD/pyscfCode/N2_equil_UHF/run_pyscf.py ****
import numpy as np
import pyscf
from pyscf import ao2mo


def main():
    """ Initialize calculation details, 2e- integrals, Fock matrix, etc """

    # run pyscf for some reason
    basis = '6-31G'#'ccpvdz'
    mol = pyscf.M(
        atom='H 0 0 0; F 0 0 {}'.format(0.917), #'N 0 0 0; N 0 0 {}'.format(2.0749193),
        #atom='Be 0 0 0'
        verbose=5,
        #unit='b',
        basis=basis)


    mf = mol.UHF()
    mf.init_guess='1e'
    mf.conv_tol_grad=1E-10
    mf.run()

    from pyscf.lib import logger

    def stable_opt_internal(mf):
        log = logger.new_logger(mf)
        mo1, _, stable, _ = mf.stability(return_status=True)
        cyc = 0
        while (not stable and cyc < 10):
            log.note('Try to optimize orbitals until stable, attempt %d' % cyc)
            dm1 = mf.make_rdm1(mo1, mf.mo_occ)
            mf = mf.run(dm1)
            mo1, _, stable, _ = mf.stability(return_status=True)
            cyc += 1
        if not stable:
            log.note('Stability Opt failed after %d attempts' % cyc)
        return mf
    print('loop example')
    mf = stable_opt_internal(mf)

    orb=mf.mo_coeff
    print(np.shape(mf.get_hcore()))
    print(np.shape(orb))
    import run_ccd as run_ccd 
 
    cc_runtype={"ccdType":"DiagCCD"}

    run_ccd.ccd_main(mf,mol,orb,cc_runtype)


main()
#INFO: ******************** input file end ********************


System: uname_result(system='Linux', node='login5.ufhpc', release='3.10.0-1160.80.1.el7.x86_64', version='#1 SMP Sat Oct 8 18:13:21 UTC 2022', machine='x86_64', processor='x86_64')  Threads 28
Python 3.7.12 | packaged by conda-forge | (default, Oct 26 2021, 06:08:21) 
[GCC 9.4.0]
numpy 1.21.6  scipy 1.7.3
Date: Tue Jan 31 22:17:00 2023
PySCF version 2.1.1
PySCF path  /blue/bartlett/z.windom/MOLSSI_develop/T2method/new/pyscf
GIT ORIG_HEAD 41535e74b1de6eb21fc9b6a13c089d6cd55b35d7
GIT HEAD (branch master) ff882f83f5730ea5610d52cc5b88d278f9b71da7

[ENV] PYSCF_INC_DIR /home/z.windom/libxc-4.3.4
[CONFIG] conf_file /home/z.windom/.pyscf_conf.py
[INPUT] verbose = 5
[INPUT] max_memory = 4000 
[INPUT] num. atoms = 2
[INPUT] num. electrons = 10
[INPUT] charge = 0
[INPUT] spin (= nelec alpha-beta = 2S) = 0
[INPUT] symmetry False subgroup None
[INPUT] Mole.unit = angstrom
[INPUT] Symbol           X                Y                Z      unit          X                Y                Z       unit  Magmom
[INPUT]  1 H      0.000000000000   0.000000000000   0.000000000000 AA    0.000000000000   0.000000000000   0.000000000000 Bohr   0.0
[INPUT]  2 F      0.000000000000   0.000000000000   0.917000000000 AA    0.000000000000   0.000000000000   1.732878856226 Bohr   0.0
[INPUT] ---------------- BASIS SET ---------------- 
[INPUT] l, kappa, [nprim/nctr], expnt,             c_1 c_2 ...
[INPUT] F
[INPUT] 0    0    [6    /1   ]  7001.71309        0.0018196169
                                1051.36609        0.0139160796
                                239.28569         0.0684053245
                                67.3974453        0.23318576
                                21.5199573        0.471267439
                                7.4031013         0.356618546
[INPUT] 0    0    [3    /1   ]  20.8479528        -0.108506975
                                4.80830834        -0.146451658
                                1.34406986        1.12868858
[INPUT] 0    0    [1    /1   ]  0.358151393          1
[INPUT] 1    0    [3    /1   ]  20.8479528        0.0716287243
                                4.80830834        0.345912103
                                1.34406986        0.722469957
[INPUT] 1    0    [1    /1   ]  0.358151393          1
[INPUT] H
[INPUT] 0    0    [3    /1   ]  18.731137         0.0334946
                                2.8253937         0.23472695
                                0.6401217         0.81375733
[INPUT] 0    0    [1    /1   ]  0.1612778            1

nuclear repulsion = 5.19366946377317
number of shells = 7
number of NR pGTOs = 26
number of NR cGTOs = 11
basis = 6-31G
ecp = {}
CPU time:         2.14


******** <class 'pyscf.scf.uhf.UHF'> ********
method = UHF
initial guess = 1e
damping factor = 0
level_shift factor = 0
DIIS = <class 'pyscf.scf.diis.CDIIS'>
diis_start_cycle = 1
diis_space = 8
SCF conv_tol = 1e-09
SCF conv_tol_grad = 1e-10
SCF max_cycles = 50
direct_scf = True
direct_scf_tol = 1e-13
chkfile to save SCF result = /blue/bartlett/z.windom/MOLSSI_develop/test/build_T2_interfaces/RECORDS/verify_spin_CCD/pyscfCode/N2_equil_UHF/tmpadhvkfdq
max_memory 4000 MB (current use 85 MB)
number electrons alpha = 5  beta = 5
Initial guess from hcore.
  alpha nocc = 5  HOMO = -10.0936607887869  LUMO = -5.09275799553285
  beta  nocc = 5  HOMO = -10.0936607887869  LUMO = -5.09275799553285
  alpha mo_energy =
[-41.02296897 -10.44106609 -10.09553976 -10.09366079 -10.09366079
  -5.092758    -4.46049268  -4.406218    -4.406218    -3.81136747
  -2.66937615]
  beta  mo_energy =
[-41.02296897 -10.44106609 -10.09553976 -10.09366079 -10.09366079
  -5.092758    -4.46049268  -4.406218    -4.406218    -3.81136747
  -2.66937615]
multiplicity <S^2> = 0  2S+1 = 1
E1 = -163.11304118007217  Ecoul = 64.29824950165359
init E= -93.6211222146454
cond(S) = 25.594965630916704
    CPU time for initialize scf      0.77 sec, wall time      0.04 sec

WARN: alpha nocc = 5  HOMO 0.542024842708578 >= LUMO 0.542024842708579


WARN: beta  nocc = 5  HOMO 0.546137462869178 >= LUMO 0.546137462869183

  alpha mo_energy =
[-22.4812788   -0.41201957   0.13359938   0.45986465   0.54202484
   0.54202484   1.31849429   2.38135869   2.38135869   2.44055339
   2.69685047]
  beta  mo_energy =
[-22.4834938   -0.36148959   0.12811038   0.46958933   0.54613746
   0.54613746   1.31578262   2.3830793    2.3830793    2.44019944
   2.69780083]
multiplicity <S^2> = 0.086702177  2S+1 = 1.1605209
E1 = -133.40875216651506  Ecoul = 31.88234581786343
cycle= 1 E= -96.3327368848784  delta_E= -2.71  |g|= 2.63  |ddm|=  6.2
    CPU time for cycle= 1      0.35 sec, wall time      0.01 sec
  alpha nocc = 5  HOMO = -1.50656947496449  LUMO = -0.168201580088021
  beta  nocc = 5  HOMO = -1.50550818875867  LUMO = -0.171927055527227
  alpha mo_energy =
[-29.30858004  -2.94533292  -2.01649425  -2.00799812  -1.50656947
  -0.16820158   0.4453095    0.49586578   0.54895509   0.91295171
   1.26147263]
  beta  mo_energy =
[-29.30769484  -2.94141591  -2.00855052  -2.00549704  -1.50550819
  -0.17192706   0.44371755   0.49554262   0.54886914   0.9094157
   1.26096089]
multiplicity <S^2> = 0.00067903163  2S+1 = 1.0013571
E1 = -158.69479031852134  Ecoul = 54.89893513652913
cycle= 2 E= -98.602185718219  delta_E= -2.27  |g|= 1.95  |ddm|= 5.35
    CPU time for cycle= 2      0.35 sec, wall time      0.02 sec
  alpha nocc = 5  HOMO = -0.609358024873436  LUMO = 0.0571550162951359
  beta  nocc = 5  HOMO = -0.608874613757454  LUMO = 0.0568180298683012
  alpha mo_energy =
[-26.62041754  -1.81397855  -0.9514082   -0.85336019  -0.60935802
   0.05715502   1.03719814   1.24029157   1.25815743   1.33580465
   1.81365439]
  beta  mo_energy =
[-26.61979646  -1.81182867  -0.94965487  -0.85231178  -0.60887461
   0.05681803   1.03485323   1.24049304   1.25841955   1.33573833
   1.81448816]
multiplicity <S^2> = 0.00010347961  2S+1 = 1.0002069
E1 = -152.86393524563408  Ecoul = 47.78549484935614
cycle= 3 E= -99.8847709325048  delta_E= -1.28  |g|= 0.52  |ddm|= 0.87
    CPU time for cycle= 3      0.69 sec, wall time      0.03 sec
  alpha nocc = 5  HOMO = -0.654393244850554  LUMO = 0.18362043394034
  beta  nocc = 5  HOMO = -0.653987552021608  LUMO = 0.183931800087753
  alpha mo_energy =
[-26.39725708  -1.63346919  -0.78940484  -0.66110338  -0.65439324
   0.18362043   1.08649577   1.47682323   1.47779653   1.58033277
   1.98179992]
  beta  mo_energy =
[-26.39683584  -1.63244137  -0.78894808  -0.66053834  -0.65398755
   0.1839318    1.0856812    1.47709512   1.47801507   1.58069867
   1.98235512]
multiplicity <S^2> = 1.1109157e-05  2S+1 = 1.0000222
E1 = -151.0074415595631  Ecoul = 45.83468533139343
cycle= 4 E= -99.9790867643965  delta_E= -0.0943  |g|= 0.0867  |ddm|= 0.256
    CPU time for cycle= 4      1.10 sec, wall time      0.05 sec
  alpha nocc = 5  HOMO = -0.621665616262401  LUMO = 0.207626173601863
  beta  nocc = 5  HOMO = -0.621429908885107  LUMO = 0.207664925705841
  alpha mo_energy =
[-26.26599343  -1.58582555  -0.7396093   -0.62592963  -0.62166562
   0.20762617   1.11543969   1.48976983   1.49005542   1.59228104
   2.00581795]
  beta  mo_energy =
[-26.26579659  -1.58534413  -0.73911635  -0.62566622  -0.62142991
   0.20766493   1.11496286   1.48989665   1.49020273   1.59259045
   2.00604188]
multiplicity <S^2> = 2.5813228e-06  2S+1 = 1.0000052
E1 = -150.6263465840592  Ecoul = 45.44933803029229
cycle= 5 E= -99.9833390899937  delta_E= -0.00425  |g|= 0.00796  |ddm|= 0.0857
    CPU time for cycle= 5      0.18 sec, wall time      0.01 sec
  alpha nocc = 5  HOMO = -0.630873670902556  LUMO = 0.209214223440107
  beta  nocc = 5  HOMO = -0.630745427558014  LUMO = 0.209230730494194
  alpha mo_energy =
[-26.27690398  -1.59010735  -0.73993729  -0.63157089  -0.63087367
   0.20921422   1.11661563   1.48897405   1.48910562   1.59227436
   2.00552879]
  beta  mo_energy =
[-26.27679361  -1.58986486  -0.73959877  -0.63143791  -0.63074543
   0.20923073   1.11637839   1.48904954   1.48917765   1.59248334
   2.00564744]
multiplicity <S^2> = 9.2312939e-07  2S+1 = 1.0000018
E1 = -150.6279378012032  Ecoul = 45.45086160181988
cycle= 6 E= -99.9834067356101  delta_E= -6.76e-05  |g|= 0.00185  |ddm|= 0.0128
    CPU time for cycle= 6      0.21 sec, wall time      0.01 sec
  alpha nocc = 5  HOMO = -0.631185851984937  LUMO = 0.20962997695024
  beta  nocc = 5  HOMO = -0.631115057614489  LUMO = 0.20963883094146
  alpha mo_energy =
[-26.27625607  -1.58993622  -0.73934143  -0.63134435  -0.63118585
   0.20962998   1.11684174   1.48924715   1.48930257   1.59292711
   2.00592525]
  beta  mo_energy =
[-26.27619374  -1.58979849  -0.73913431  -0.63127293  -0.63111506
   0.20963883   1.11670394   1.48928614   1.48934145   1.59305423
   2.00599117]
multiplicity <S^2> = 3.1824833e-07  2S+1 = 1.0000006
E1 = -150.62308165445904  Ecoul = 45.4460033776156
cycle= 7 E= -99.9834088130703  delta_E= -2.08e-06  |g|= 0.000462  |ddm|= 0.00188
    CPU time for cycle= 7      0.13 sec, wall time      0.01 sec
  alpha nocc = 5  HOMO = -0.63101737850657  LUMO = 0.209686151866313
  beta  nocc = 5  HOMO = -0.630980030220912  LUMO = 0.209691704444432
  alpha mo_energy =
[-26.27567311  -1.58961605  -0.73900128  -0.63102437  -0.63101738
   0.20968615   1.11684961   1.48947099   1.4894732    1.59318602
   2.00610569]
  beta  mo_energy =
[-26.27563927  -1.58954149  -0.73888868  -0.63098697  -0.63098003
   0.2096917    1.11677418   1.48949128   1.48949348   1.59325607
   2.00614249]
multiplicity <S^2> = 9.5595762e-08  2S+1 = 1.0000002
E1 = -150.62134146077625  Ecoul = 45.44426308340128
cycle= 8 E= -99.9834089136018  delta_E= -1.01e-07  |g|= 0.000102  |ddm|= 0.000362
    CPU time for cycle= 8      0.16 sec, wall time      0.01 sec
  alpha nocc = 5  HOMO = -0.631007761010888  LUMO = 0.20971249004558
  beta  nocc = 5  HOMO = -0.631006949034529  LUMO = 0.209712613912671
  alpha mo_energy =
[-26.2756773   -1.58958794  -0.7389594   -0.63104085  -0.63100776
   0.20971249   1.11683058   1.48948528   1.48949395   1.59322468
   2.0061324 ]
  beta  mo_energy =
[-26.27567589  -1.58958444  -0.73895285  -0.63103989  -0.63100695
   0.20971261   1.11682621   1.48948559   1.48949418   1.59322866
   2.00613433]
multiplicity <S^2> = 3.5164227e-10  2S+1 = 1
E1 = -150.62121554175164  Ecoul = 45.44413714596004
cycle= 9 E= -99.9834089320184  delta_E= -1.84e-08  |g|= 5.28e-05  |ddm|= 0.000289
    CPU time for cycle= 9      0.14 sec, wall time      0.01 sec
  alpha nocc = 5  HOMO = -0.631031396866595  LUMO = 0.209691905240665
  beta  nocc = 5  HOMO = -0.631031503540351  LUMO = 0.20969199074635
  alpha mo_energy =
[-26.27571846  -1.58960809  -0.73897617  -0.6310338   -0.6310314
   0.20969191   1.11681305   1.48946873   1.48947069   1.59320309
   2.00611244]
  beta  mo_energy =
[-26.27571837  -1.58960777  -0.7389754   -0.63103389  -0.6310315
   0.20969199   1.11681239   1.48946861   1.48947055   1.59320361
   2.00611272]
multiplicity <S^2> = 1.0957457e-11  2S+1 = 1
E1 = -150.6214489091186  Ecoul = 45.44437051207426
cycle= 10 E= -99.9834089332712  delta_E= -1.25e-09  |g|= 4.08e-06  |ddm|= 5.13e-05
    CPU time for cycle= 10      0.14 sec, wall time      0.01 sec
  alpha nocc = 5  HOMO = -0.631030713952215  LUMO = 0.209693696722181
  beta  nocc = 5  HOMO = -0.631030847708402  LUMO = 0.209693680341474
  alpha mo_energy =
[-26.27571502  -1.58960667  -0.73897569  -0.63103121  -0.63103071
   0.2096937    1.11681437   1.48947013   1.48947051   1.59320397
   2.00611371]
  beta  mo_energy =
[-26.27571507  -1.58960672  -0.73897562  -0.63103134  -0.63103085
   0.20969368   1.11681429   1.48947003   1.48947041   1.593204
   2.00611371]
multiplicity <S^2> = 4.0500936e-13  2S+1 = 1
E1 = -150.6214377678101  Ecoul = 45.44435937075485
cycle= 11 E= -99.9834089332821  delta_E= -1.09e-11  |g|= 7.04e-07  |ddm|= 4.18e-06
    CPU time for cycle= 11      0.14 sec, wall time      0.01 sec
  alpha nocc = 5  HOMO = -0.631031059330046  LUMO = 0.20969369794149
  beta  nocc = 5  HOMO = -0.631031104858311  LUMO = 0.209693695259997
  alpha mo_energy =
[-26.27571494  -1.58960666  -0.7389755   -0.63103113  -0.63103106
   0.2096937    1.11681449   1.48947019   1.48947024   1.59320389
   2.00611371]
  beta  mo_energy =
[-26.27571496  -1.58960669  -0.7389755   -0.63103117  -0.6310311
   0.2096937    1.11681448   1.48947015   1.4894702    1.59320389
   2.00611371]
multiplicity <S^2> = 6.2172489e-15  2S+1 = 1
E1 = -150.62143802189703  Ecoul = 45.44435962484144
cycle= 12 E= -99.9834089332824  delta_E= -3.41e-13  |g|= 1e-07  |ddm|= 8.24e-07
    CPU time for cycle= 12      0.14 sec, wall time      0.01 sec
  alpha nocc = 5  HOMO = -0.631031107181621  LUMO = 0.209693701437672
  beta  nocc = 5  HOMO = -0.631031125516535  LUMO = 0.209693699968837
  alpha mo_energy =
[-26.27571496  -1.58960667  -0.73897552  -0.63103112  -0.63103111
   0.2096937    1.11681447   1.48947019   1.4894702    1.5932039
   2.00611371]
  beta  mo_energy =
[-26.27571497  -1.58960668  -0.73897552  -0.63103114  -0.63103113
   0.2096937    1.11681447   1.48947017   1.48947019   1.5932039
   2.00611371]
multiplicity <S^2> = -3.5527137e-15  2S+1 = 1
E1 = -150.62143797620985  Ecoul = 45.444359579154195
cycle= 13 E= -99.9834089332825  delta_E= -5.68e-14  |g|= 3.08e-08  |ddm|= 1.12e-07
    CPU time for cycle= 13      0.26 sec, wall time      0.01 sec
Linear dependence found in DIIS error vectors.
  alpha nocc = 5  HOMO = -0.631031113638928  LUMO = 0.209693700183231
  beta  nocc = 5  HOMO = -0.631031126118429  LUMO = 0.209693699186888
  alpha mo_energy =
[-26.27571496  -1.58960667  -0.73897552  -0.63103112  -0.63103111
   0.2096937    1.11681447   1.48947019   1.4894702    1.5932039
   2.00611371]
  beta  mo_energy =
[-26.27571497  -1.58960668  -0.73897552  -0.63103114  -0.63103113
   0.2096937    1.11681447   1.48947018   1.48947019   1.5932039
   2.00611371]
multiplicity <S^2> = 0  2S+1 = 1
E1 = -150.62143797694  Ecoul = 45.44435957988445
cycle= 14 E= -99.9834089332824  delta_E= 9.95e-14  |g|= 1.98e-08  |ddm|= 1.6e-08
    CPU time for cycle= 14      0.23 sec, wall time      0.01 sec
Linear dependence found in DIIS error vectors.
  alpha nocc = 5  HOMO = -0.631031116087954  LUMO = 0.209693699678376
  beta  nocc = 5  HOMO = -0.631031126021572  LUMO = 0.209693698888393
  alpha mo_energy =
[-26.27571496  -1.58960667  -0.73897552  -0.63103112  -0.63103112
   0.2096937    1.11681447   1.48947019   1.4894702    1.5932039
   2.00611371]
  beta  mo_energy =
[-26.27571497  -1.58960668  -0.73897552  -0.63103113  -0.63103113
   0.2096937    1.11681447   1.48947018   1.48947019   1.5932039
   2.00611371]
multiplicity <S^2> = -8.8817842e-16  2S+1 = 1
E1 = -150.62143797651885  Ecoul = 45.44435957946318
cycle= 15 E= -99.9834089332825  delta_E= -1.14e-13  |g|= 1.53e-08  |ddm|= 6.67e-09
    CPU time for cycle= 15      0.25 sec, wall time      0.01 sec
Linear dependence found in DIIS error vectors.
  alpha nocc = 5  HOMO = -0.631031117359233  LUMO = 0.209693699137332
  beta  nocc = 5  HOMO = -0.631031125866067  LUMO = 0.209693698461979
  alpha mo_energy =
[-26.27571496  -1.58960667  -0.73897552  -0.63103112  -0.63103112
   0.2096937    1.11681447   1.48947019   1.48947019   1.5932039
   2.00611371]
  beta  mo_energy =
[-26.27571497  -1.58960668  -0.73897552  -0.63103113  -0.63103113
   0.2096937    1.11681447   1.48947018   1.48947019   1.5932039
   2.00611371]
multiplicity <S^2> = -3.5527137e-15  2S+1 = 1
E1 = -150.621437980194  Ecoul = 45.44435958313835
cycle= 16 E= -99.9834089332825  delta_E= 1.42e-14  |g|= 1.27e-08  |ddm|= 4.47e-09
    CPU time for cycle= 16      0.20 sec, wall time      0.01 sec
Linear dependence found in DIIS error vectors.
  alpha nocc = 5  HOMO = -0.631031118207892  LUMO = 0.209693698927968
  beta  nocc = 5  HOMO = -0.631031125138752  LUMO = 0.209693698420849
  alpha mo_energy =
[-26.27571496  -1.58960667  -0.73897552  -0.63103112  -0.63103112
   0.2096937    1.11681447   1.48947019   1.48947019   1.5932039
   2.00611371]
  beta  mo_energy =
[-26.27571497  -1.58960668  -0.73897552  -0.63103113  -0.63103113
   0.2096937    1.11681447   1.48947018   1.48947019   1.5932039
   2.00611371]
multiplicity <S^2> = 0  2S+1 = 1
E1 = -150.621437980346  Ecoul = 45.444359583290364
cycle= 17 E= -99.9834089332825  delta_E= 1.42e-14  |g|= 1.12e-08  |ddm|= 5.82e-09
    CPU time for cycle= 17      0.16 sec, wall time      0.01 sec
Linear dependence found in DIIS error vectors.
  alpha nocc = 5  HOMO = -0.631031116229387  LUMO = 0.20969369899565
  beta  nocc = 5  HOMO = -0.631031123473416  LUMO = 0.209693698416706
  alpha mo_energy =
[-26.27571496  -1.58960667  -0.73897552  -0.63103112  -0.63103112
   0.2096937    1.11681447   1.48947019   1.4894702    1.5932039
   2.00611371]
  beta  mo_energy =
[-26.27571496  -1.58960668  -0.73897552  -0.63103113  -0.63103112
   0.2096937    1.11681447   1.48947019   1.48947019   1.5932039
   2.00611371]
multiplicity <S^2> = 0  2S+1 = 1
E1 = -150.6214379722609  Ecoul = 45.444359575205304
cycle= 18 E= -99.9834089332824  delta_E= 4.26e-14  |g|= 1.1e-08  |ddm|= 5.54e-09
    CPU time for cycle= 18      0.17 sec, wall time      0.01 sec
Linear dependence found in DIIS error vectors.
  alpha nocc = 5  HOMO = -0.631031117127694  LUMO = 0.209693698918496
  beta  nocc = 5  HOMO = -0.63103112389495  LUMO = 0.209693698374991
  alpha mo_energy =
[-26.27571496  -1.58960667  -0.73897552  -0.63103112  -0.63103112
   0.2096937    1.11681447   1.48947019   1.48947019   1.5932039
   2.00611371]
  beta  mo_energy =
[-26.27571497  -1.58960668  -0.73897552  -0.63103113  -0.63103112
   0.2096937    1.11681447   1.48947019   1.48947019   1.5932039
   2.00611371]
multiplicity <S^2> = 0  2S+1 = 1
E1 = -150.62143797513596  Ecoul = 45.44435957808037
cycle= 19 E= -99.9834089332824  delta_E=    0  |g|= 1.01e-08  |ddm|= 1.34e-09
    CPU time for cycle= 19      0.16 sec, wall time      0.01 sec
Linear dependence found in DIIS error vectors.
  alpha nocc = 5  HOMO = -0.631031122669182  LUMO = 0.209693698431692
  beta  nocc = 5  HOMO = -0.631031125402025  LUMO = 0.209693698226227
  alpha mo_energy =
[-26.27571497  -1.58960668  -0.73897552  -0.63103112  -0.63103112
   0.2096937    1.11681447   1.48947019   1.48947019   1.5932039
   2.00611371]
  beta  mo_energy =
[-26.27571497  -1.58960668  -0.73897552  -0.63103113  -0.63103113
   0.2096937    1.11681447   1.48947019   1.48947019   1.5932039
   2.00611371]
multiplicity <S^2> = 0  2S+1 = 1
E1 = -150.62143797938785  Ecoul = 45.44435958233218
cycle= 20 E= -99.9834089332825  delta_E= -7.11e-14  |g|= 3.78e-09  |ddm|= 1.06e-08
    CPU time for cycle= 20      0.15 sec, wall time      0.01 sec
Linear dependence found in DIIS error vectors.
  alpha nocc = 5  HOMO = -0.631031120071534  LUMO = 0.209693698579717
  beta  nocc = 5  HOMO = -0.631031124666407  LUMO = 0.209693698221856
  alpha mo_energy =
[-26.27571496  -1.58960667  -0.73897552  -0.63103112  -0.63103112
   0.2096937    1.11681447   1.48947019   1.48947019   1.5932039
   2.00611371]
  beta  mo_energy =
[-26.27571497  -1.58960668  -0.73897552  -0.63103113  -0.63103112
   0.2096937    1.11681447   1.48947019   1.48947019   1.5932039
   2.00611371]
multiplicity <S^2> = -3.5527137e-15  2S+1 = 1
E1 = -150.62143797810347  Ecoul = 45.44435958104779
cycle= 21 E= -99.9834089332825  delta_E= -1.42e-14  |g|= 6.32e-09  |ddm|= 5.74e-09
    CPU time for cycle= 21      0.22 sec, wall time      0.01 sec
Linear dependence found in DIIS error vectors.
  alpha nocc = 5  HOMO = -0.631031120809508  LUMO = 0.209693698507115
  beta  nocc = 5  HOMO = -0.63103112453563  LUMO = 0.209693698218817
  alpha mo_energy =
[-26.27571496  -1.58960667  -0.73897552  -0.63103112  -0.63103112
   0.2096937    1.11681447   1.48947019   1.48947019   1.5932039
   2.00611371]
  beta  mo_energy =
[-26.27571497  -1.58960668  -0.73897552  -0.63103113  -0.63103112
   0.2096937    1.11681447   1.48947019   1.48947019   1.5932039
   2.00611371]
multiplicity <S^2> = -2.6645353e-15  2S+1 = 1
E1 = -150.62143797804174  Ecoul = 45.4443595809861
cycle= 22 E= -99.9834089332825  delta_E= 4.26e-14  |g|= 5.01e-09  |ddm|= 1.99e-09
    CPU time for cycle= 22      0.17 sec, wall time      0.01 sec
Linear dependence found in DIIS error vectors.
  alpha nocc = 5  HOMO = -0.631031121238518  LUMO = 0.209693698461898
  beta  nocc = 5  HOMO = -0.631031124410392  LUMO = 0.209693698217774
  alpha mo_energy =
[-26.27571497  -1.58960667  -0.73897552  -0.63103112  -0.63103112
   0.2096937    1.11681447   1.48947019   1.48947019   1.5932039
   2.00611371]
  beta  mo_energy =
[-26.27571497  -1.58960668  -0.73897552  -0.63103113  -0.63103112
   0.2096937    1.11681447   1.48947019   1.48947019   1.5932039
   2.00611371]
multiplicity <S^2> = 0  2S+1 = 1
E1 = -150.62143797804197  Ecoul = 45.444359580986344
cycle= 23 E= -99.9834089332824  delta_E= 1.42e-14  |g|= 4.22e-09  |ddm|= 1.21e-09
    CPU time for cycle= 23      0.16 sec, wall time      0.01 sec
Linear dependence found in DIIS error vectors.
  alpha nocc = 5  HOMO = -0.631031121542877  LUMO = 0.209693698425893
  beta  nocc = 5  HOMO = -0.631031124285932  LUMO = 0.209693698215994
  alpha mo_energy =
[-26.27571497  -1.58960667  -0.73897552  -0.63103112  -0.63103112
   0.2096937    1.11681447   1.48947019   1.48947019   1.5932039
   2.00611371]
  beta  mo_energy =
[-26.27571497  -1.58960668  -0.73897552  -0.63103113  -0.63103112
   0.2096937    1.11681447   1.48947019   1.48947019   1.5932039
   2.00611371]
multiplicity <S^2> = 5.3290705e-15  2S+1 = 1
E1 = -150.62143797802497  Ecoul = 45.44435958096939
cycle= 24 E= -99.9834089332824  delta_E= 4.26e-14  |g|= 3.63e-09  |ddm|= 9.14e-10
    CPU time for cycle= 24      0.18 sec, wall time      0.01 sec
Linear dependence found in DIIS error vectors.
  alpha nocc = 5  HOMO = -0.631031121834876  LUMO = 0.209693698401245
  beta  nocc = 5  HOMO = -0.631031124210071  LUMO = 0.20969369822104
  alpha mo_energy =
[-26.27571497  -1.58960667  -0.73897552  -0.63103112  -0.63103112
   0.2096937    1.11681447   1.48947019   1.48947019   1.5932039
   2.00611371]
  beta  mo_energy =
[-26.27571497  -1.58960668  -0.73897552  -0.63103113  -0.63103112
   0.2096937    1.11681447   1.48947019   1.48947019   1.5932039
   2.00611371]
multiplicity <S^2> = -1.7763568e-15  2S+1 = 1
E1 = -150.62143797816955  Ecoul = 45.44435958111393
cycle= 25 E= -99.9834089332824  delta_E= -4.26e-14  |g|= 3.14e-09  |ddm|= 7.46e-10
    CPU time for cycle= 25      0.33 sec, wall time      0.01 sec
Linear dependence found in DIIS error vectors.
  alpha nocc = 5  HOMO = -0.631031122075342  LUMO = 0.20969369838546
  beta  nocc = 5  HOMO = -0.6310311241739  LUMO = 0.209693698224018
  alpha mo_energy =
[-26.27571497  -1.58960667  -0.73897552  -0.63103112  -0.63103112
   0.2096937    1.11681447   1.48947019   1.48947019   1.5932039
   2.00611371]
  beta  mo_energy =
[-26.27571497  -1.58960668  -0.73897552  -0.63103113  -0.63103112
   0.2096937    1.11681447   1.48947019   1.48947019   1.5932039
   2.00611371]
multiplicity <S^2> = -5.3290705e-15  2S+1 = 1
E1 = -150.62143797828736  Ecoul = 45.44435958123168
cycle= 26 E= -99.9834089332825  delta_E= -5.68e-14  |g|= 2.71e-09  |ddm|= 8.05e-10
    CPU time for cycle= 26      0.17 sec, wall time      0.01 sec
Linear dependence found in DIIS error vectors.
  alpha nocc = 5  HOMO = -0.631031122288137  LUMO = 0.209693698381776
  beta  nocc = 5  HOMO = -0.631031124060451  LUMO = 0.209693698246352
  alpha mo_energy =
[-26.27571497  -1.58960668  -0.73897552  -0.63103112  -0.63103112
   0.2096937    1.11681447   1.48947019   1.48947019   1.5932039
   2.00611371]
  beta  mo_energy =
[-26.27571497  -1.58960668  -0.73897552  -0.63103112  -0.63103112
   0.2096937    1.11681447   1.48947019   1.48947019   1.5932039
   2.00611371]
multiplicity <S^2> = 2.6645353e-15  2S+1 = 1
E1 = -150.6214379777951  Ecoul = 45.444359580739516
cycle= 27 E= -99.9834089332824  delta_E= 9.95e-14  |g|= 2.26e-09  |ddm|= 6.92e-10
    CPU time for cycle= 27      0.18 sec, wall time      0.01 sec
Linear dependence found in DIIS error vectors.
  alpha nocc = 5  HOMO = -0.631031122521013  LUMO = 0.209693698372895
  beta  nocc = 5  HOMO = -0.631031123975786  LUMO = 0.209693698263013
  alpha mo_energy =
[-26.27571497  -1.58960668  -0.73897552  -0.63103112  -0.63103112
   0.2096937    1.11681447   1.48947019   1.48947019   1.5932039
   2.00611371]
  beta  mo_energy =
[-26.27571497  -1.58960668  -0.73897552  -0.63103112  -0.63103112
   0.2096937    1.11681447   1.48947019   1.48947019   1.5932039
   2.00611371]
multiplicity <S^2> = 8.8817842e-16  2S+1 = 1
E1 = -150.62143797754612  Ecoul = 45.4443595804905
cycle= 28 E= -99.9834089332824  delta_E= -4.26e-14  |g|= 1.84e-09  |ddm|= 6.6e-10
    CPU time for cycle= 28      0.20 sec, wall time      0.01 sec
Linear dependence found in DIIS error vectors.
  alpha nocc = 5  HOMO = -0.631031122549699  LUMO = 0.209693698360853
  beta  nocc = 5  HOMO = -0.631031123923433  LUMO = 0.209693698257199
  alpha mo_energy =
[-26.27571497  -1.58960668  -0.73897552  -0.63103112  -0.63103112
   0.2096937    1.11681447   1.48947019   1.48947019   1.5932039
   2.00611371]
  beta  mo_energy =
[-26.27571497  -1.58960668  -0.73897552  -0.63103112  -0.63103112
   0.2096937    1.11681447   1.48947019   1.48947019   1.5932039
   2.00611371]
multiplicity <S^2> = -1.7763568e-15  2S+1 = 1
E1 = -150.6214379777437  Ecoul = 45.444359580688015
cycle= 29 E= -99.9834089332825  delta_E= -7.11e-14  |g|= 1.76e-09  |ddm|= 1.82e-10
    CPU time for cycle= 29      0.17 sec, wall time      0.01 sec
Linear dependence found in DIIS error vectors.
  alpha nocc = 5  HOMO = -0.631031122703459  LUMO = 0.209693698349917
  beta  nocc = 5  HOMO = -0.631031123874174  LUMO = 0.209693698262036
  alpha mo_energy =
[-26.27571497  -1.58960668  -0.73897552  -0.63103112  -0.63103112
   0.2096937    1.11681447   1.48947019   1.48947019   1.5932039
   2.00611371]
  beta  mo_energy =
[-26.27571497  -1.58960668  -0.73897552  -0.63103112  -0.63103112
   0.2096937    1.11681447   1.48947019   1.48947019   1.5932039
   2.00611371]
multiplicity <S^2> = -6.2172489e-15  2S+1 = 1
E1 = -150.62143797777884  Ecoul = 45.444359580723216
cycle= 30 E= -99.9834089332824  delta_E= 7.11e-14  |g|= 1.49e-09  |ddm|= 4.24e-10
    CPU time for cycle= 30      0.17 sec, wall time      0.01 sec
Linear dependence found in DIIS error vectors.
  alpha nocc = 5  HOMO = -0.631031122820911  LUMO = 0.209693698341647
  beta  nocc = 5  HOMO = -0.631031123830661  LUMO = 0.209693698266205
  alpha mo_energy =
[-26.27571497  -1.58960668  -0.73897552  -0.63103112  -0.63103112
   0.2096937    1.11681447   1.48947019   1.48947019   1.5932039
   2.00611371]
  beta  mo_energy =
[-26.27571497  -1.58960668  -0.73897552  -0.63103112  -0.63103112
   0.2096937    1.11681447   1.48947019   1.48947019   1.5932039
   2.00611371]
multiplicity <S^2> = 2.6645353e-15  2S+1 = 1
E1 = -150.6214379778035  Ecoul = 45.4443595807479
cycle= 31 E= -99.9834089332824  delta_E= 1.42e-14  |g|= 1.28e-09  |ddm|= 3.33e-10
    CPU time for cycle= 31      0.16 sec, wall time      0.01 sec
Linear dependence found in DIIS error vectors.
  alpha nocc = 5  HOMO = -0.63103112291874  LUMO = 0.20969369833502
  beta  nocc = 5  HOMO = -0.631031123792458  LUMO = 0.209693698270022
  alpha mo_energy =
[-26.27571497  -1.58960668  -0.73897552  -0.63103112  -0.63103112
   0.2096937    1.11681447   1.48947019   1.48947019   1.5932039
   2.00611371]
  beta  mo_energy =
[-26.27571497  -1.58960668  -0.73897552  -0.63103112  -0.63103112
   0.2096937    1.11681447   1.48947019   1.48947019   1.5932039
   2.00611371]
multiplicity <S^2> = -1.7763568e-15  2S+1 = 1
E1 = -150.6214379778231  Ecoul = 45.44435958076751
cycle= 32 E= -99.9834089332824  delta_E= 2.84e-14  |g|= 1.11e-09  |ddm|= 2.81e-10
    CPU time for cycle= 32      0.18 sec, wall time      0.01 sec
Linear dependence found in DIIS error vectors.
  alpha nocc = 5  HOMO = -0.631031123002665  LUMO = 0.209693698329877
  beta  nocc = 5  HOMO = -0.631031123759011  LUMO = 0.209693698273822
  alpha mo_energy =
[-26.27571497  -1.58960668  -0.73897552  -0.63103112  -0.63103112
   0.2096937    1.11681447   1.48947019   1.48947019   1.5932039
   2.00611371]
  beta  mo_energy =
[-26.27571497  -1.58960668  -0.73897552  -0.63103112  -0.63103112
   0.2096937    1.11681447   1.48947019   1.48947019   1.5932039
   2.00611371]
multiplicity <S^2> = -1.7763568e-15  2S+1 = 1
E1 = -150.62143797783588  Ecoul = 45.44435958078026
cycle= 33 E= -99.9834089332824  delta_E= -4.26e-14  |g|= 9.58e-10  |ddm|= 2.45e-10
    CPU time for cycle= 33      0.18 sec, wall time      0.01 sec
Linear dependence found in DIIS error vectors.
  alpha nocc = 5  HOMO = -0.631031123076127  LUMO = 0.209693698325377
  beta  nocc = 5  HOMO = -0.631031123731284  LUMO = 0.209693698276913
  alpha mo_energy =
[-26.27571497  -1.58960668  -0.73897552  -0.63103112  -0.63103112
   0.2096937    1.11681447   1.48947019   1.48947019   1.5932039
   2.00611371]
  beta  mo_energy =
[-26.27571497  -1.58960668  -0.73897552  -0.63103112  -0.63103112
   0.2096937    1.11681447   1.48947019   1.48947019   1.5932039
   2.00611371]
multiplicity <S^2> = 1.7763568e-15  2S+1 = 1
E1 = -150.62143797785728  Ecoul = 45.444359580801716
cycle= 34 E= -99.9834089332824  delta_E= 5.68e-14  |g|= 8.27e-10  |ddm|= 2.17e-10
    CPU time for cycle= 34      0.17 sec, wall time      0.01 sec
Linear dependence found in DIIS error vectors.
  alpha nocc = 5  HOMO = -0.631031123142068  LUMO = 0.209693698321036
  beta  nocc = 5  HOMO = -0.631031123706218  LUMO = 0.209693698279606
  alpha mo_energy =
[-26.27571497  -1.58960668  -0.73897552  -0.63103112  -0.63103112
   0.2096937    1.11681447   1.48947019   1.48947019   1.5932039
   2.00611371]
  beta  mo_energy =
[-26.27571497  -1.58960668  -0.73897552  -0.63103112  -0.63103112
   0.2096937    1.11681447   1.48947019   1.48947019   1.5932039
   2.00611371]
multiplicity <S^2> = 0  2S+1 = 1
E1 = -150.6214379778863  Ecoul = 45.44435958083067
cycle= 35 E= -99.9834089332824  delta_E= -5.68e-14  |g|= 7.14e-10  |ddm|= 1.83e-10
    CPU time for cycle= 35      0.17 sec, wall time      0.01 sec
Linear dependence found in DIIS error vectors.
  alpha nocc = 5  HOMO = -0.631031123191319  LUMO = 0.209693698317722
  beta  nocc = 5  HOMO = -0.631031123679403  LUMO = 0.209693698282127
  alpha mo_energy =
[-26.27571497  -1.58960668  -0.73897552  -0.63103112  -0.63103112
   0.2096937    1.11681447   1.48947019   1.48947019   1.5932039
   2.00611371]
  beta  mo_energy =
[-26.27571497  -1.58960668  -0.73897552  -0.63103112  -0.63103112
   0.2096937    1.11681447   1.48947019   1.48947019   1.5932039
   2.00611371]
multiplicity <S^2> = 0  2S+1 = 1
E1 = -150.6214379778823  Ecoul = 45.4443595808267
cycle= 36 E= -99.9834089332824  delta_E= 2.84e-14  |g|= 6.2e-10  |ddm|= 1.53e-10
    CPU time for cycle= 36      0.24 sec, wall time      0.01 sec
Linear dependence found in DIIS error vectors.
  alpha nocc = 5  HOMO = -0.631031123226405  LUMO = 0.209693698315131
  beta  nocc = 5  HOMO = -0.63103112365382  LUMO = 0.209693698284135
  alpha mo_energy =
[-26.27571497  -1.58960668  -0.73897552  -0.63103112  -0.63103112
   0.2096937    1.11681447   1.48947019   1.48947019   1.5932039
   2.00611371]
  beta  mo_energy =
[-26.27571497  -1.58960668  -0.73897552  -0.63103112  -0.63103112
   0.2096937    1.11681447   1.48947019   1.48947019   1.5932039
   2.00611371]
multiplicity <S^2> = -3.5527137e-15  2S+1 = 1
E1 = -150.62143797786405  Ecoul = 45.444359580808424
cycle= 37 E= -99.9834089332824  delta_E= -2.84e-14  |g|= 5.45e-10  |ddm|= 1.23e-10
    CPU time for cycle= 37      0.25 sec, wall time      0.01 sec
Linear dependence found in DIIS error vectors.
  alpha nocc = 5  HOMO = -0.631031123264688  LUMO = 0.209693698312687
  beta  nocc = 5  HOMO = -0.631031123632821  LUMO = 0.209693698286161
  alpha mo_energy =
[-26.27571497  -1.58960668  -0.73897552  -0.63103112  -0.63103112
   0.2096937    1.11681447   1.48947019   1.48947019   1.5932039
   2.00611371]
  beta  mo_energy =
[-26.27571497  -1.58960668  -0.73897552  -0.63103112  -0.63103112
   0.2096937    1.11681447   1.48947019   1.48947019   1.5932039
   2.00611371]
multiplicity <S^2> = -1.7763568e-15  2S+1 = 1
E1 = -150.62143797785762  Ecoul = 45.44435958080203
cycle= 38 E= -99.9834089332824  delta_E= 2.84e-14  |g|= 4.71e-10  |ddm|= 1.23e-10
    CPU time for cycle= 38      0.22 sec, wall time      0.01 sec
Linear dependence found in DIIS error vectors.
  alpha nocc = 5  HOMO = -0.631031123296796  LUMO = 0.209693698310631
  beta  nocc = 5  HOMO = -0.6310311236147  LUMO = 0.209693698287871
  alpha mo_energy =
[-26.27571497  -1.58960668  -0.73897552  -0.63103112  -0.63103112
   0.2096937    1.11681447   1.48947019   1.48947019   1.5932039
   2.00611371]
  beta  mo_energy =
[-26.27571497  -1.58960668  -0.73897552  -0.63103112  -0.63103112
   0.2096937    1.11681447   1.48947019   1.48947019   1.5932039
   2.00611371]
multiplicity <S^2> = -6.2172489e-15  2S+1 = 1
E1 = -150.62143797785367  Ecoul = 45.44435958079802
cycle= 39 E= -99.9834089332825  delta_E= -5.68e-14  |g|= 4.08e-10  |ddm|= 1.05e-10
    CPU time for cycle= 39      0.17 sec, wall time      0.01 sec
Linear dependence found in DIIS error vectors.
  alpha nocc = 5  HOMO = -0.631031123324304  LUMO = 0.209693698308864
  beta  nocc = 5  HOMO = -0.631031123598951  LUMO = 0.209693698289339
  alpha mo_energy =
[-26.27571497  -1.58960668  -0.73897552  -0.63103112  -0.63103112
   0.2096937    1.11681447   1.48947019   1.48947019   1.5932039
   2.00611371]
  beta  mo_energy =
[-26.27571497  -1.58960668  -0.73897552  -0.63103112  -0.63103112
   0.2096937    1.11681447   1.48947019   1.48947019   1.5932039
   2.00611371]
multiplicity <S^2> = -7.1054274e-15  2S+1 = 1
E1 = -150.62143797785123  Ecoul = 45.444359580795606
cycle= 40 E= -99.9834089332824  delta_E= 2.84e-14  |g|= 3.55e-10  |ddm|= 9.07e-11
    CPU time for cycle= 40      0.20 sec, wall time      0.01 sec
Linear dependence found in DIIS error vectors.
  alpha nocc = 5  HOMO = -0.631031123347992  LUMO = 0.209693698307343
  beta  nocc = 5  HOMO = -0.631031123585237  LUMO = 0.209693698290595
  alpha mo_energy =
[-26.27571497  -1.58960668  -0.73897552  -0.63103112  -0.63103112
   0.2096937    1.11681447   1.48947019   1.48947019   1.5932039
   2.00611371]
  beta  mo_energy =
[-26.27571497  -1.58960668  -0.73897552  -0.63103112  -0.63103112
   0.2096937    1.11681447   1.48947019   1.48947019   1.5932039
   2.00611371]
multiplicity <S^2> = 0  2S+1 = 1
E1 = -150.62143797785  Ecoul = 45.444359580794426
cycle= 41 E= -99.9834089332824  delta_E= 4.26e-14  |g|= 3.08e-10  |ddm|= 7.89e-11
    CPU time for cycle= 41      0.30 sec, wall time      0.01 sec
Linear dependence found in DIIS error vectors.
  alpha nocc = 5  HOMO = -0.631031123368386  LUMO = 0.209693698305998
  beta  nocc = 5  HOMO = -0.631031123573239  LUMO = 0.209693698291659
  alpha mo_energy =
[-26.27571497  -1.58960668  -0.73897552  -0.63103112  -0.63103112
   0.2096937    1.11681447   1.48947019   1.48947019   1.5932039
   2.00611371]
  beta  mo_energy =
[-26.27571497  -1.58960668  -0.73897552  -0.63103112  -0.63103112
   0.2096937    1.11681447   1.48947019   1.48947019   1.5932039
   2.00611371]
multiplicity <S^2> = -5.3290705e-15  2S+1 = 1
E1 = -150.62143797784995  Ecoul = 45.44435958079431
cycle= 42 E= -99.9834089332825  delta_E= -5.68e-14  |g|= 2.68e-10  |ddm|= 6.85e-11
    CPU time for cycle= 42      0.21 sec, wall time      0.01 sec
Linear dependence found in DIIS error vectors.
  alpha nocc = 5  HOMO = -0.631031123386063  LUMO = 0.209693698304792
  beta  nocc = 5  HOMO = -0.631031123562797  LUMO = 0.209693698292539
  alpha mo_energy =
[-26.27571497  -1.58960668  -0.73897552  -0.63103112  -0.63103112
   0.2096937    1.11681447   1.48947019   1.48947019   1.5932039
   2.00611371]
  beta  mo_energy =
[-26.27571497  -1.58960668  -0.73897552  -0.63103112  -0.63103112
   0.2096937    1.11681447   1.48947019   1.48947019   1.5932039
   2.00611371]
multiplicity <S^2> = 8.8817842e-16  2S+1 = 1
E1 = -150.6214379778512  Ecoul = 45.44435958079562
cycle= 43 E= -99.9834089332824  delta_E= 5.68e-14  |g|= 2.33e-10  |ddm|= 5.91e-11
    CPU time for cycle= 43      0.17 sec, wall time      0.01 sec
Linear dependence found in DIIS error vectors.
  alpha nocc = 5  HOMO = -0.631031123401369  LUMO = 0.209693698303709
  beta  nocc = 5  HOMO = -0.63103112355395  LUMO = 0.209693698293236
  alpha mo_energy =
[-26.27571497  -1.58960668  -0.73897552  -0.63103112  -0.63103112
   0.2096937    1.11681447   1.48947019   1.48947019   1.5932039
   2.00611371]
  beta  mo_energy =
[-26.27571497  -1.58960668  -0.73897552  -0.63103112  -0.63103112
   0.2096937    1.11681447   1.48947019   1.48947019   1.5932039
   2.00611371]
multiplicity <S^2> = -1.7763568e-15  2S+1 = 1
E1 = -150.62143797785455  Ecoul = 45.44435958079893
cycle= 44 E= -99.9834089332824  delta_E= -4.26e-14  |g|= 2.03e-10  |ddm|= 5.15e-11
    CPU time for cycle= 44      0.20 sec, wall time      0.01 sec
Linear dependence found in DIIS error vectors.
  alpha nocc = 5  HOMO = -0.631031123414506  LUMO = 0.209693698302782
  beta  nocc = 5  HOMO = -0.631031123546236  LUMO = 0.209693698293834
  alpha mo_energy =
[-26.27571497  -1.58960668  -0.73897552  -0.63103112  -0.63103112
   0.2096937    1.11681447   1.48947019   1.48947019   1.5932039
   2.00611371]
  beta  mo_energy =
[-26.27571497  -1.58960668  -0.73897552  -0.63103112  -0.63103112
   0.2096937    1.11681447   1.48947019   1.48947019   1.5932039
   2.00611371]
multiplicity <S^2> = -4.4408921e-15  2S+1 = 1
E1 = -150.62143797785728  Ecoul = 45.44435958080163
cycle= 45 E= -99.9834089332825  delta_E= -2.84e-14  |g|= 1.78e-10  |ddm|= 4.53e-11
    CPU time for cycle= 45      0.22 sec, wall time      0.01 sec
Linear dependence found in DIIS error vectors.
  alpha nocc = 5  HOMO = -0.631031123425916  LUMO = 0.209693698302017
  beta  nocc = 5  HOMO = -0.631031123539284  LUMO = 0.209693698294404
  alpha mo_energy =
[-26.27571497  -1.58960668  -0.73897552  -0.63103112  -0.63103112
   0.2096937    1.11681447   1.48947019   1.48947019   1.5932039
   2.00611371]
  beta  mo_energy =
[-26.27571497  -1.58960668  -0.73897552  -0.63103112  -0.63103112
   0.2096937    1.11681447   1.48947019   1.48947019   1.5932039
   2.00611371]
multiplicity <S^2> = -8.8817842e-16  2S+1 = 1
E1 = -150.62143797785822  Ecoul = 45.44435958080258
cycle= 46 E= -99.9834089332825  delta_E= 1.42e-14  |g|= 1.55e-10  |ddm|= 4.03e-11
    CPU time for cycle= 46      0.22 sec, wall time      0.01 sec
Linear dependence found in DIIS error vectors.
  alpha nocc = 5  HOMO = -0.631031123435589  LUMO = 0.209693698301369
  beta  nocc = 5  HOMO = -0.631031123533161  LUMO = 0.209693698294898
  alpha mo_energy =
[-26.27571497  -1.58960668  -0.73897552  -0.63103112  -0.63103112
   0.2096937    1.11681447   1.48947019   1.48947019   1.5932039
   2.00611371]
  beta  mo_energy =
[-26.27571497  -1.58960668  -0.73897552  -0.63103112  -0.63103112
   0.2096937    1.11681447   1.48947019   1.48947019   1.5932039
   2.00611371]
multiplicity <S^2> = -1.7763568e-15  2S+1 = 1
E1 = -150.6214379778586  Ecoul = 45.444359580802995
cycle= 47 E= -99.9834089332824  delta_E= 4.26e-14  |g|= 1.35e-10  |ddm|= 3.51e-11
    CPU time for cycle= 47      0.22 sec, wall time      0.01 sec
Linear dependence found in DIIS error vectors.
  alpha nocc = 5  HOMO = -0.631031123443842  LUMO = 0.209693698300818
  beta  nocc = 5  HOMO = -0.631031123527765  LUMO = 0.209693698295332
  alpha mo_energy =
[-26.27571497  -1.58960668  -0.73897552  -0.63103112  -0.63103112
   0.2096937    1.11681447   1.48947019   1.48947019   1.5932039
   2.00611371]
  beta  mo_energy =
[-26.27571497  -1.58960668  -0.73897552  -0.63103112  -0.63103112
   0.2096937    1.11681447   1.48947019   1.48947019   1.5932039
   2.00611371]
multiplicity <S^2> = 2.6645353e-15  2S+1 = 1
E1 = -150.62143797785856  Ecoul = 45.444359580802995
cycle= 48 E= -99.9834089332824  delta_E= 2.84e-14  |g|= 1.18e-10  |ddm|= 3.07e-11
    CPU time for cycle= 48      0.18 sec, wall time      0.01 sec
Linear dependence found in DIIS error vectors.
  alpha nocc = 5  HOMO = -0.631031123450885  LUMO = 0.209693698300356
  beta  nocc = 5  HOMO = -0.631031123523042  LUMO = 0.209693698295705
  alpha mo_energy =
[-26.27571497  -1.58960668  -0.73897552  -0.63103112  -0.63103112
   0.2096937    1.11681447   1.48947019   1.48947019   1.5932039
   2.00611371]
  beta  mo_energy =
[-26.27571497  -1.58960668  -0.73897552  -0.63103112  -0.63103112
   0.2096937    1.11681447   1.48947019   1.48947019   1.5932039
   2.00611371]
multiplicity <S^2> = -1.7763568e-15  2S+1 = 1
E1 = -150.62143797785842  Ecoul = 45.44435958080283
cycle= 49 E= -99.9834089332824  delta_E= -2.84e-14  |g|= 1.03e-10  |ddm|= 2.69e-11
    CPU time for cycle= 49      0.17 sec, wall time      0.01 sec
Linear dependence found in DIIS error vectors.
  alpha nocc = 5  HOMO = -0.631031123456926  LUMO = 0.209693698299949
  beta  nocc = 5  HOMO = -0.631031123518882  LUMO = 0.209693698296028
  alpha mo_energy =
[-26.27571497  -1.58960668  -0.73897552  -0.63103112  -0.63103112
   0.2096937    1.11681447   1.48947019   1.48947019   1.5932039
   2.00611371]
  beta  mo_energy =
[-26.27571497  -1.58960668  -0.73897552  -0.63103112  -0.63103112
   0.2096937    1.11681447   1.48947019   1.48947019   1.5932039
   2.00611371]
multiplicity <S^2> = -1.7763568e-15  2S+1 = 1
E1 = -150.62143797785816  Ecoul = 45.44435958080254
cycle= 50 E= -99.9834089332824  delta_E= -2.84e-14  |g|= 9e-11  |ddm|= 2.36e-11
    CPU time for cycle= 50      0.22 sec, wall time      0.01 sec
  alpha nocc = 5  HOMO = -0.631031123476322  LUMO = 0.20969369829868
  beta  nocc = 5  HOMO = -0.631031123505302  LUMO = 0.209693698297049
  alpha mo_energy =
[-26.27571497  -1.58960668  -0.73897552  -0.63103112  -0.63103112
   0.2096937    1.11681447   1.48947019   1.48947019   1.5932039
   2.00611371]
  beta  mo_energy =
[-26.27571497  -1.58960668  -0.73897552  -0.63103112  -0.63103112
   0.2096937    1.11681447   1.48947019   1.48947019   1.5932039
   2.00611371]
multiplicity <S^2> = 8.8817842e-16  2S+1 = 1
E1 = -150.6214379778578  Ecoul = 45.4443595808022
Extra cycle  E= -99.9834089332824  delta_E= 2.84e-14  |g|= 4.78e-11  |ddm|= 7.98e-11
    CPU time for scf_cycle     12.29 sec, wall time      0.53 sec
    CPU time for SCF     12.29 sec, wall time      0.53 sec
converged SCF energy = -99.9834089332824  <S^2> = 8.8817842e-16  2S+1 = 1
loop example
davidson 0 1  |r|= 2.34  e= [2.32663564]  max|de|= 2.33  lindep= 0.597
davidson 1 2  |r|= 0.907  e= [1.26242338]  max|de|= -1.06  lindep= 0.804
davidson 2 3  |r|= 0.456  e= [1.04453299]  max|de|= -0.218  lindep= 0.862
davidson 3 4  |r|= 0.417  e= [0.91363999]  max|de|= -0.131  lindep= 0.926
davidson 4 5  |r|= 0.165  e= [0.89432464]  max|de|= -0.0193  lindep= 0.866
davidson 5 6  |r|= 0.294  e= [0.88722057]  max|de|= -0.0071  lindep= 0.579
davidson 6 7  |r|= 0.301  e= [0.76788381]  max|de|= -0.119  lindep= 0.667
davidson 7 8  |r|= 0.0292  e= [0.75802654]  max|de|= -0.00986  lindep= 0.767
davidson 8 9  |r|= 0.0054  e= [0.7578384]  max|de|= -0.000188  lindep= 0.972
root 0 converged  |r|= 0.00179  e= 0.7578359231909676  max|de|= -2.47e-06
converged 9 10  |r|= 0.00179  e= [0.75783592]  max|de|= -2.47e-06
<class 'pyscf.scf.uhf.UHF'> wavefunction is stable in the internal stability analysis
(11, 11)
(2, 11, 11)
mo energy: (11,)
total 2e- integral energy: 45.4443595808022
(11, 11, 11, 11)
final rhf/uhf energy: -99.98340893328242
moE: [-26.27571497  -1.58960668  -0.73897552  -0.63103112  -0.63103112
   0.2096937    1.11681447   1.48947019   1.48947019   1.5932039
   2.00611371] [-26.27571497  -1.58960668  -0.73897552  -0.63103112  -0.63103112
   0.2096937    1.11681447   1.48947019   1.48947019   1.5932039
   2.00611371]
slice(None, 5, None) slice(5, None, None)
eabij_aa: [[[[-0.01887832 -0.03535479 -0.03645102 -0.03659501 -0.03659501]
   [-0.03535479 -0.27788579 -0.36390505 -0.37878426 -0.37878426]
   [-0.03645102 -0.36390505 -0.5270541  -0.5588484  -0.5588484 ]
   [-0.03659501 -0.37878426 -0.5588484  -0.59472492 -0.59472492]
   [-0.03659501 -0.37878426 -0.5588484  -0.59472492 -0.59472492]]

  [[-0.01856047 -0.03425616 -0.03528432 -0.03541923 -0.03541923]
   [-0.03425616 -0.22194004 -0.27359105 -0.28191679 -0.28191679]
   [-0.03528432 -0.27359105 -0.35657499 -0.37084907 -0.37084907]
   [-0.03541923 -0.28191679 -0.37084907 -0.38631362 -0.38631362]
   [-0.03541923 -0.28191679 -0.37084907 -0.38631362 -0.38631362]]

  [[-0.01843298 -0.03382437 -0.03482639 -0.03495781 -0.03495781]
   [-0.03382437 -0.2049862  -0.24827782 -0.25511495 -0.25511495]
   [-0.03482639 -0.24827782 -0.31475097 -0.32582093 -0.32582093]
   [-0.03495781 -0.25511495 -0.32582093 -0.33769795 -0.33769795]
   [-0.03495781 -0.25511495 -0.32582093 -0.33769795 -0.33769795]]

  [[-0.01843298 -0.03382437 -0.03482639 -0.03495781 -0.03495781]
   [-0.03382437 -0.2049862  -0.24827782 -0.25511495 -0.25511495]
   [-0.03482639 -0.24827782 -0.31475097 -0.32582093 -0.32582093]
   [-0.03495781 -0.25511495 -0.32582093 -0.33769795 -0.33769795]
   [-0.03495781 -0.25511495 -0.32582093 -0.33769795 -0.33769795]]

  [[-0.0183978  -0.0337061  -0.03470103 -0.0348315  -0.0348315 ]
   [-0.0337061  -0.20071813 -0.24204403 -0.24853764 -0.24853764]
   [-0.03470103 -0.24204403 -0.30479919 -0.31516867 -0.31516867]
   [-0.0348315  -0.24853764 -0.31516867 -0.32626855 -0.32626855]
   [-0.0348315  -0.24853764 -0.31516867 -0.32626855 -0.32626855]]

  [[-0.01825909 -0.03324343 -0.03421084 -0.03433765 -0.03433765]
   [-0.03324343 -0.1853561  -0.22005156 -0.22540569 -0.22540569]
   [-0.03421084 -0.22005156 -0.27072696 -0.2788767  -0.2788767 ]
   [-0.03433765 -0.22540569 -0.2788767  -0.28753234 -0.28753234]
   [-0.03433765 -0.22540569 -0.2788767  -0.28753234 -0.28753234]]]


 [[[-0.01856047 -0.03425616 -0.03528432 -0.03541923 -0.03541923]
   [-0.03425616 -0.22194004 -0.27359105 -0.28191679 -0.28191679]
   [-0.03528432 -0.27359105 -0.35657499 -0.37084907 -0.37084907]
   [-0.03541923 -0.28191679 -0.37084907 -0.38631362 -0.38631362]
   [-0.03541923 -0.28191679 -0.37084907 -0.38631362 -0.38631362]]

  [[-0.01825315 -0.03322375 -0.03419    -0.03431665 -0.03431665]
   [-0.03322375 -0.18474582 -0.21919196 -0.22450384 -0.22450384]
   [-0.03419    -0.21919196 -0.26942704 -0.27749754 -0.27749754]
   [-0.03431665 -0.22450384 -0.27749754 -0.28606646 -0.28606646]
   [-0.03431665 -0.22450384 -0.27749754 -0.28606646 -0.28606646]]

  [[-0.01812983 -0.03281744 -0.03375986 -0.03388334 -0.03388334]
   [-0.03281744 -0.17284597 -0.20263971 -0.20717134 -0.20717134]
   [-0.03375986 -0.20263971 -0.24484385 -0.25149063 -0.25149063]
   [-0.03388334 -0.20717134 -0.25149063 -0.25850836 -0.25850836]
   [-0.03388334 -0.20717134 -0.25149063 -0.25850836 -0.25850836]]

  [[-0.01812983 -0.03281744 -0.03375986 -0.03388334 -0.03388334]
   [-0.03281744 -0.17284597 -0.20263971 -0.20717134 -0.20717134]
   [-0.03375986 -0.20263971 -0.24484385 -0.25149063 -0.25149063]
   [-0.03388334 -0.20717134 -0.25149063 -0.25850836 -0.25850836]
   [-0.03388334 -0.20717134 -0.25149063 -0.25850836 -0.25850836]]

  [[-0.0180958  -0.0327061  -0.03364205 -0.03376466 -0.03376466]
   [-0.0327061  -0.16980144 -0.19846781 -0.20281276 -0.20281276]
   [-0.03364205 -0.19846781 -0.2387792  -0.24509654 -0.24509654]
   [-0.03376466 -0.20281276 -0.24509654 -0.25175723 -0.25175723]
   [-0.03376466 -0.20281276 -0.24509654 -0.25175723 -0.25175723]]

  [[-0.01796159 -0.0322703  -0.03318112 -0.03330039 -0.03330039]
   [-0.0322703  -0.15867622 -0.1834354  -0.18714095 -0.18714095]
   [-0.03318112 -0.1834354  -0.21734976 -0.22257167 -0.22257167]
   [-0.03330039 -0.18714095 -0.22257167 -0.22805067 -0.22805067]
   [-0.03330039 -0.18714095 -0.22257167 -0.22805067 -0.22805067]]]


 [[[-0.01843298 -0.03382437 -0.03482639 -0.03495781 -0.03495781]
   [-0.03382437 -0.2049862  -0.24827782 -0.25511495 -0.25511495]
   [-0.03482639 -0.24827782 -0.31475097 -0.32582093 -0.32582093]
   [-0.03495781 -0.25511495 -0.32582093 -0.33769795 -0.33769795]
   [-0.03495781 -0.25511495 -0.32582093 -0.33769795 -0.33769795]]

  [[-0.01812983 -0.03281744 -0.03375986 -0.03388334 -0.03388334]
   [-0.03281744 -0.17284597 -0.20263971 -0.20717134 -0.20717134]
   [-0.03375986 -0.20263971 -0.24484385 -0.25149063 -0.25149063]
   [-0.03388334 -0.20717134 -0.25149063 -0.25850836 -0.25850836]
   [-0.03388334 -0.20717134 -0.25149063 -0.25850836 -0.25850836]]

  [[-0.01800816 -0.03242094 -0.03334041 -0.03346083 -0.03346083]
   [-0.03242094 -0.16238633 -0.18841182 -0.19232329 -0.19232329]
   [-0.03334041 -0.18841182 -0.22437163 -0.22994072 -0.22994072]
   [-0.03346083 -0.19232329 -0.22994072 -0.2357933  -0.2357933 ]
   [-0.03346083 -0.19232329 -0.22994072 -0.2357933  -0.2357933 ]]

  [[-0.01800816 -0.03242094 -0.03334041 -0.03346083 -0.03346083]
   [-0.03242094 -0.16238633 -0.18841182 -0.19232329 -0.19232329]
   [-0.03334041 -0.18841182 -0.22437163 -0.22994072 -0.22994072]
   [-0.03346083 -0.19232329 -0.22994072 -0.2357933  -0.2357933 ]
   [-0.03346083 -0.19232329 -0.22994072 -0.2357933  -0.2357933 ]]

  [[-0.01797459 -0.03231227 -0.0332255  -0.03334509 -0.03334509]
   [-0.03231227 -0.15969626 -0.18479997 -0.18856142 -0.18856142]
   [-0.0332255  -0.18479997 -0.21926819 -0.22458381 -0.22458381]
   [-0.03334509 -0.18856142 -0.22458381 -0.23016356 -0.23016356]
   [-0.03334509 -0.18856142 -0.22458381 -0.23016356 -0.23016356]]

  [[-0.01784216 -0.03188683 -0.03277584 -0.03289222 -0.03289222]
   [-0.03188683 -0.14981728 -0.1716984  -0.17494073 -0.17494073]
   [-0.03277584 -0.1716984  -0.20106424 -0.2055249  -0.2055249 ]
   [-0.03289222 -0.17494073 -0.2055249  -0.21018797 -0.21018797]
   [-0.03289222 -0.17494073 -0.2055249  -0.21018797 -0.21018797]]]


 [[[-0.01843298 -0.03382437 -0.03482639 -0.03495781 -0.03495781]
   [-0.03382437 -0.2049862  -0.24827782 -0.25511495 -0.25511495]
   [-0.03482639 -0.24827782 -0.31475097 -0.32582093 -0.32582093]
   [-0.03495781 -0.25511495 -0.32582093 -0.33769795 -0.33769795]
   [-0.03495781 -0.25511495 -0.32582093 -0.33769795 -0.33769795]]

  [[-0.01812983 -0.03281744 -0.03375986 -0.03388334 -0.03388334]
   [-0.03281744 -0.17284597 -0.20263971 -0.20717134 -0.20717134]
   [-0.03375986 -0.20263971 -0.24484385 -0.25149063 -0.25149063]
   [-0.03388334 -0.20717134 -0.25149063 -0.25850836 -0.25850836]
   [-0.03388334 -0.20717134 -0.25149063 -0.25850836 -0.25850836]]

  [[-0.01800816 -0.03242094 -0.03334041 -0.03346083 -0.03346083]
   [-0.03242094 -0.16238633 -0.18841182 -0.19232329 -0.19232329]
   [-0.03334041 -0.18841182 -0.22437163 -0.22994072 -0.22994072]
   [-0.03346083 -0.19232329 -0.22994072 -0.2357933  -0.2357933 ]
   [-0.03346083 -0.19232329 -0.22994072 -0.2357933  -0.2357933 ]]

  [[-0.01800816 -0.03242094 -0.03334041 -0.03346083 -0.03346083]
   [-0.03242094 -0.16238633 -0.18841182 -0.19232329 -0.19232329]
   [-0.03334041 -0.18841182 -0.22437163 -0.22994072 -0.22994072]
   [-0.03346083 -0.19232329 -0.22994072 -0.2357933  -0.2357933 ]
   [-0.03346083 -0.19232329 -0.22994072 -0.2357933  -0.2357933 ]]

  [[-0.01797459 -0.03231227 -0.0332255  -0.03334509 -0.03334509]
   [-0.03231227 -0.15969626 -0.18479997 -0.18856142 -0.18856142]
   [-0.0332255  -0.18479997 -0.21926819 -0.22458381 -0.22458381]
   [-0.03334509 -0.18856142 -0.22458381 -0.23016356 -0.23016356]
   [-0.03334509 -0.18856142 -0.22458381 -0.23016356 -0.23016356]]

  [[-0.01784216 -0.03188683 -0.03277584 -0.03289222 -0.03289222]
   [-0.03188683 -0.14981728 -0.1716984  -0.17494073 -0.17494073]
   [-0.03277584 -0.1716984  -0.20106424 -0.2055249  -0.2055249 ]
   [-0.03289222 -0.17494073 -0.2055249  -0.21018797 -0.21018797]
   [-0.03289222 -0.17494073 -0.2055249  -0.21018797 -0.21018797]]]


 [[[-0.0183978  -0.0337061  -0.03470103 -0.0348315  -0.0348315 ]
   [-0.0337061  -0.20071813 -0.24204403 -0.24853764 -0.24853764]
   [-0.03470103 -0.24204403 -0.30479919 -0.31516867 -0.31516867]
   [-0.0348315  -0.24853764 -0.31516867 -0.32626855 -0.32626855]
   [-0.0348315  -0.24853764 -0.31516867 -0.32626855 -0.32626855]]

  [[-0.0180958  -0.0327061  -0.03364205 -0.03376466 -0.03376466]
   [-0.0327061  -0.16980144 -0.19846781 -0.20281276 -0.20281276]
   [-0.03364205 -0.19846781 -0.2387792  -0.24509654 -0.24509654]
   [-0.03376466 -0.20281276 -0.24509654 -0.25175723 -0.25175723]
   [-0.03376466 -0.20281276 -0.24509654 -0.25175723 -0.25175723]]

  [[-0.01797459 -0.03231227 -0.0332255  -0.03334509 -0.03334509]
   [-0.03231227 -0.15969626 -0.18479997 -0.18856142 -0.18856142]
   [-0.0332255  -0.18479997 -0.21926819 -0.22458381 -0.22458381]
   [-0.03334509 -0.18856142 -0.22458381 -0.23016356 -0.23016356]
   [-0.03334509 -0.18856142 -0.22458381 -0.23016356 -0.23016356]]

  [[-0.01797459 -0.03231227 -0.0332255  -0.03334509 -0.03334509]
   [-0.03231227 -0.15969626 -0.18479997 -0.18856142 -0.18856142]
   [-0.0332255  -0.18479997 -0.21926819 -0.22458381 -0.22458381]
   [-0.03334509 -0.18856142 -0.22458381 -0.23016356 -0.23016356]
   [-0.03334509 -0.18856142 -0.22458381 -0.23016356 -0.23016356]]

  [[-0.01794113 -0.03220433 -0.03311138 -0.03323015 -0.03323015]
   [-0.03220433 -0.15709386 -0.18132399 -0.18494388 -0.18494388]
   [-0.03311138 -0.18132399 -0.21439174 -0.21947082 -0.21947082]
   [-0.03323015 -0.18494388 -0.21947082 -0.22479639 -0.22479639]
   [-0.03323015 -0.18494388 -0.21947082 -0.22479639 -0.22479639]]

  [[-0.0178092  -0.03178171 -0.03266479 -0.03278037 -0.03278037]
   [-0.03178171 -0.14752459 -0.16869381 -0.17182262 -0.17182262]
   [-0.03266479 -0.16869381 -0.19695629 -0.2012346  -0.2012346 ]
   [-0.03278037 -0.17182262 -0.2012346  -0.20570291 -0.20570291]
   [-0.03278037 -0.17182262 -0.2012346  -0.20570291 -0.20570291]]]


 [[[-0.01825909 -0.03324343 -0.03421084 -0.03433765 -0.03433765]
   [-0.03324343 -0.1853561  -0.22005156 -0.22540569 -0.22540569]
   [-0.03421084 -0.22005156 -0.27072696 -0.2788767  -0.2788767 ]
   [-0.03433765 -0.22540569 -0.2788767  -0.28753234 -0.28753234]
   [-0.03433765 -0.22540569 -0.2788767  -0.28753234 -0.28753234]]

  [[-0.01796159 -0.0322703  -0.03318112 -0.03330039 -0.03330039]
   [-0.0322703  -0.15867622 -0.1834354  -0.18714095 -0.18714095]
   [-0.03318112 -0.1834354  -0.21734976 -0.22257167 -0.22257167]
   [-0.03330039 -0.18714095 -0.22257167 -0.22805067 -0.22805067]
   [-0.03330039 -0.18714095 -0.22257167 -0.22805067 -0.22805067]]

  [[-0.01784216 -0.03188683 -0.03277584 -0.03289222 -0.03289222]
   [-0.03188683 -0.14981728 -0.1716984  -0.17494073 -0.17494073]
   [-0.03277584 -0.1716984  -0.20106424 -0.2055249  -0.2055249 ]
   [-0.03289222 -0.17494073 -0.2055249  -0.21018797 -0.21018797]
   [-0.03289222 -0.17494073 -0.2055249  -0.21018797 -0.21018797]]

  [[-0.01784216 -0.03188683 -0.03277584 -0.03289222 -0.03289222]
   [-0.03188683 -0.14981728 -0.1716984  -0.17494073 -0.17494073]
   [-0.03277584 -0.1716984  -0.20106424 -0.2055249  -0.2055249 ]
   [-0.03289222 -0.17494073 -0.2055249  -0.21018797 -0.21018797]
   [-0.03289222 -0.17494073 -0.2055249  -0.21018797 -0.21018797]]

  [[-0.0178092  -0.03178171 -0.03266479 -0.03278037 -0.03278037]
   [-0.03178171 -0.14752459 -0.16869381 -0.17182262 -0.17182262]
   [-0.03266479 -0.16869381 -0.19695629 -0.2012346  -0.2012346 ]
   [-0.03278037 -0.17182262 -0.2012346  -0.20570291 -0.20570291]
   [-0.03278037 -0.17182262 -0.2012346  -0.20570291 -0.20570291]]

  [[-0.0176792  -0.03137004 -0.03223008 -0.0323426  -0.0323426 ]
   [-0.03137004 -0.13905419 -0.15770857 -0.16043986 -0.16043986]
   [-0.03223008 -0.15770857 -0.18214344 -0.18579645 -0.18579645]
   [-0.0323426  -0.16043986 -0.18579645 -0.18959899 -0.18959899]
   [-0.0323426  -0.16043986 -0.18579645 -0.18959899 -0.18959899]]]] (6, 6, 5, 5)
hf energy: -99.98340893328242
nuclear repulsion: 5.193669463773174
(11, 11, 11, 11)
initial energy: -105.17707839705557
    ==>  DiagCCD  amplitude equations <==

     Iter              Corr. Energy                 |dE|    

roots [-1.39277291e-01 -3.95598908e-02 -1.96158961e-02 -1.86947616e-02
 -1.09485639e-02 -1.03068389e-02 -9.27796329e-03 -6.97277616e-03
 -5.31844706e-03 -4.69516106e-03 -1.58815626e-03 -1.50928195e-03
 -1.06473317e-03 -9.16072799e-04 -8.45875955e-04 -4.44229769e-04
 -2.25829667e-04 -1.54044398e-04 -1.03152698e-04 -1.23006800e-06
 -5.91844734e-08 -2.13078856e-18  1.03152698e-04  2.25829667e-04
  8.45875955e-04  1.58815626e-03  5.31844706e-03  9.27796329e-03
  1.03068389e-02  1.96158961e-02]
roots [-7.38803861e-02 -3.19987091e-02 -3.19987091e-02 -2.91839991e-02
 -1.80395044e-02 -1.65423336e-02 -1.65423336e-02 -1.90121326e-03
 -1.87611158e-03 -1.92674944e-04 -1.92674944e-04 -1.56144404e-05
 -6.14204477e-06 -2.05262624e-08  1.63404305e-18  4.85685487e-18
  8.85338762e-05  1.92674944e-04  1.92674944e-04  1.68728754e-03
  1.81406115e-03  1.17832228e-02  1.65423336e-02  1.65423336e-02
  1.80504998e-02  2.91839991e-02  2.91839991e-02  3.19987091e-02
  3.19987091e-02  3.31113882e-02]
roots [-7.38803861e-02 -3.19987091e-02 -3.19987091e-02 -2.91839991e-02
 -1.80395044e-02 -1.65423336e-02 -1.65423336e-02 -1.90121326e-03
 -1.87611158e-03 -1.92674944e-04 -1.92674944e-04 -1.56144404e-05
 -6.14204477e-06 -2.05262622e-08  6.41581898e-18  8.93157172e-18
  8.85338762e-05  1.92674944e-04  1.92674944e-04  1.68728755e-03
  1.81406115e-03  1.17832228e-02  1.65423336e-02  1.65423336e-02
  1.80504998e-02  2.91839991e-02  2.91839991e-02  3.19987091e-02
  3.19987091e-02  3.31113882e-02]
        0      -0.128694219585       0.128694219585 

roots [-1.41172646e-01 -4.94964746e-02 -2.49224002e-02 -2.21037652e-02
 -1.32636789e-02 -1.21709475e-02 -1.12031621e-02 -6.96369152e-03
 -4.72036458e-03 -3.28311912e-03 -1.93283040e-03 -1.61611031e-03
 -1.37518073e-03 -1.08329279e-03 -1.00925164e-03 -9.72898460e-04
 -6.32628473e-04 -5.75318515e-04  1.07511487e-05  3.70681958e-05
  3.79554017e-04  6.32628473e-04  8.22768319e-04  1.00925164e-03
  1.08329279e-03  1.61611031e-03  4.72036458e-03  1.21709475e-02
  1.32636789e-02  2.49224002e-02]
roots [-6.37819505e-02 -2.77233034e-02 -2.77233034e-02 -2.56813549e-02
 -1.50949382e-02 -1.40710281e-02 -1.40710281e-02 -1.99429890e-03
 -1.93914785e-03 -1.97410614e-04 -1.97410614e-04 -1.87793036e-05
 -8.16993659e-06 -4.25910565e-07  8.14247562e-18  1.42068439e-17
  9.41505785e-05  1.97410614e-04  1.97410614e-04  1.67720099e-03
  1.87570566e-03  9.79508590e-03  1.40710281e-02  1.40710281e-02
  1.51075862e-02  2.56813549e-02  2.56813549e-02  2.77233034e-02
  2.77233034e-02  2.86066264e-02]
roots [-6.37819505e-02 -2.77233034e-02 -2.77233034e-02 -2.56813549e-02
 -1.50949382e-02 -1.40710281e-02 -1.40710281e-02 -1.99429891e-03
 -1.93914785e-03 -1.97410614e-04 -1.97410614e-04 -1.87793036e-05
 -8.16993659e-06 -4.25910564e-07  1.84273047e-17  2.16842984e-17
  9.41505785e-05  1.97410614e-04  1.97410614e-04  1.67720099e-03
  1.87570566e-03  9.79508590e-03  1.40710281e-02  1.40710281e-02
  1.51075862e-02  2.56813549e-02  2.56813549e-02  2.77233034e-02
  2.77233034e-02  2.86066264e-02]
        1      -0.128237688606       0.000456530978 

roots [-1.44294654e-01 -5.26807672e-02 -2.64005444e-02 -2.29765552e-02
 -1.43410916e-02 -1.31076257e-02 -1.14427262e-02 -6.98460682e-03
 -4.58639394e-03 -2.99409780e-03 -2.96214737e-03 -2.58109519e-03
 -1.53106070e-03 -1.37702185e-03 -1.11313570e-03 -9.73320856e-04
 -6.59963007e-04 -6.23635271e-04  8.13722707e-06  3.47253849e-05
  2.62120807e-04  6.59963007e-04  1.11313570e-03  1.28483457e-03
  1.53106070e-03  2.58109519e-03  4.58639394e-03  1.31076257e-02
  1.43410916e-02  2.64005444e-02]
roots [-6.17160851e-02 -2.67686504e-02 -2.67686504e-02 -2.50473985e-02
 -1.44943568e-02 -1.36272818e-02 -1.36272818e-02 -2.04030766e-03
 -1.96753530e-03 -1.98010288e-04 -1.98010288e-04 -1.90856473e-05
 -8.54718326e-06 -4.60256171e-07  1.25347546e-17  2.02540448e-17
  9.64325092e-05  1.98010288e-04  1.98010288e-04  1.68623578e-03
  1.90309478e-03  9.45040861e-03  1.36272818e-02  1.36272818e-02
  1.45067535e-02  2.50473985e-02  2.50473985e-02  2.67686504e-02
  2.67686504e-02  2.75560543e-02]
roots [-6.17160851e-02 -2.67686504e-02 -2.67686504e-02 -2.50473985e-02
 -1.44943568e-02 -1.36272818e-02 -1.36272818e-02 -2.04030766e-03
 -1.96753530e-03 -1.98010288e-04 -1.98010288e-04 -1.90856473e-05
 -8.54718326e-06 -4.60256170e-07  2.98013035e-17  3.41004614e-17
  9.64325092e-05  1.98010288e-04  1.98010288e-04  1.68623578e-03
  1.90309478e-03  9.45040861e-03  1.36272818e-02  1.36272818e-02
  1.45067535e-02  2.50473985e-02  2.50473985e-02  2.67686504e-02
  2.67686504e-02  2.75560543e-02]
        2      -0.129899903483       0.001662214877 

roots [-1.45413681e-01 -5.37164870e-02 -2.68335455e-02 -2.32108567e-02
 -1.47522089e-02 -1.34407483e-02 -1.15119847e-02 -6.96251444e-03
 -4.51317802e-03 -3.44132395e-03 -3.01426110e-03 -2.85272842e-03
 -1.74122027e-03 -1.37708307e-03 -1.09393639e-03 -9.71492217e-04
 -6.65975733e-04 -6.44043453e-04  8.79153218e-06  3.56147513e-05
  2.77612891e-04  6.44043453e-04  1.09393639e-03  1.50471612e-03
  1.74122027e-03  3.01426110e-03  4.51317802e-03  1.34407483e-02
  1.47522089e-02  2.68335455e-02]
roots [-6.08545463e-02 -2.63463529e-02 -2.63463529e-02 -2.47891382e-02
 -1.42585099e-02 -1.34657664e-02 -1.34657664e-02 -2.05723644e-03
 -1.97743879e-03 -1.97989817e-04 -1.97989817e-04 -1.91706033e-05
 -8.70961446e-06 -4.24287501e-07  1.73807484e-17  2.84942362e-17
  9.70637376e-05  1.97989817e-04  1.97989817e-04  1.68982559e-03
  1.91251268e-03  9.33392234e-03  1.34657664e-02  1.34657664e-02
  1.42707900e-02  2.47891382e-02  2.47891382e-02  2.63463529e-02
  2.63463529e-02  2.70827834e-02]
roots [-6.08545463e-02 -2.63463529e-02 -2.63463529e-02 -2.47891382e-02
 -1.42585099e-02 -1.34657664e-02 -1.34657664e-02 -2.05723644e-03
 -1.97743879e-03 -1.97989817e-04 -1.97989817e-04 -1.91706033e-05
 -8.70961446e-06 -4.24287500e-07  3.91250369e-17  4.63801846e-17
  9.70637376e-05  1.97989817e-04  1.97989817e-04  1.68982559e-03
  1.91251268e-03  9.33392234e-03  1.34657664e-02  1.34657664e-02
  1.42707900e-02  2.47891382e-02  2.47891382e-02  2.63463529e-02
  2.63463529e-02  2.70827834e-02]
        3      -0.130376617833       0.000476714350 

roots [-1.45856946e-01 -5.40713942e-02 -2.69679088e-02 -2.32845446e-02
 -1.49188144e-02 -1.35641590e-02 -1.15517552e-02 -6.95349137e-03
 -4.48307986e-03 -3.61458194e-03 -3.19467323e-03 -2.81810873e-03
 -1.82297818e-03 -1.37811173e-03 -1.09124106e-03 -9.71035640e-04
 -6.89255169e-04 -6.42339775e-04  8.68521463e-06  3.56849781e-05
  2.69833177e-04  6.42339775e-04  1.09124106e-03  1.59858588e-03
  1.82297818e-03  3.19467323e-03  4.48307986e-03  1.35641590e-02
  1.49188144e-02  2.69679088e-02]
roots [-6.05222918e-02 -2.61755132e-02 -2.61755132e-02 -2.46947937e-02
 -1.41698620e-02 -1.34102686e-02 -1.34102686e-02 -2.06500195e-03
 -1.98251150e-03 -1.97922481e-04 -1.97922481e-04 -1.91833623e-05
 -8.76961040e-06 -4.12781986e-07  2.30709349e-17  3.56058287e-17
  9.72475405e-05  1.97922481e-04  1.97922481e-04  1.69281629e-03
  1.91733721e-03  9.29606970e-03  1.34102686e-02  1.34102686e-02
  1.41820844e-02  2.46947937e-02  2.46947937e-02  2.61755132e-02
  2.61755132e-02  2.68876841e-02]
roots [-6.05222918e-02 -2.61755132e-02 -2.61755132e-02 -2.46947937e-02
 -1.41698620e-02 -1.34102686e-02 -1.34102686e-02 -2.06500195e-03
 -1.98251150e-03 -1.97922481e-04 -1.97922481e-04 -1.91833623e-05
 -8.76961040e-06 -4.12781986e-07  4.93903191e-17  5.92968344e-17
  9.72475406e-05  1.97922481e-04  1.97922481e-04  1.69281629e-03
  1.91733721e-03  9.29606970e-03  1.34102686e-02  1.34102686e-02
  1.41820844e-02  2.46947937e-02  2.46947937e-02  2.61755132e-02
  2.61755132e-02  2.68876841e-02]
        4      -0.130548749513       0.000172131680 

roots [-1.46031718e-01 -5.41963183e-02 -2.70108425e-02 -2.33099202e-02
 -1.49868967e-02 -1.36106887e-02 -1.15705700e-02 -6.94862292e-03
 -4.46975072e-03 -3.67959160e-03 -3.26790161e-03 -2.80525024e-03
 -1.85492505e-03 -1.37871704e-03 -1.08906041e-03 -9.70860941e-04
 -6.99550887e-04 -6.40806245e-04  8.70539439e-06  3.57282314e-05
  2.68276261e-04  6.40806245e-04  1.08906041e-03  1.63737753e-03
  1.85492505e-03  3.26790161e-03  4.46975072e-03  1.36106887e-02
  1.49868967e-02  2.70108425e-02]
roots [-6.03918162e-02 -2.61059120e-02 -2.61059120e-02 -2.46599109e-02
 -1.41352697e-02 -1.33904867e-02 -1.33904867e-02 -2.06840673e-03
 -1.98489748e-03 -1.97893475e-04 -1.97893475e-04 -1.91811301e-05
 -8.79058151e-06 -4.08551197e-07  2.77434266e-17  4.36418711e-17
  9.72901735e-05  1.97893475e-04  1.97893475e-04  1.69447653e-03
  1.91961819e-03  9.28310991e-03  1.33904867e-02  1.33904867e-02
  1.41474650e-02  2.46599109e-02  2.46599109e-02  2.61059120e-02
  2.61059120e-02  2.68068996e-02]
roots [-6.03918162e-02 -2.61059120e-02 -2.61059120e-02 -2.46599109e-02
 -1.41352697e-02 -1.33904867e-02 -1.33904867e-02 -2.06840673e-03
 -1.98489748e-03 -1.97893475e-04 -1.97893475e-04 -1.91811301e-05
 -8.79058151e-06 -4.08551196e-07  5.91997868e-17  6.99931359e-17
  9.72901735e-05  1.97893475e-04  1.97893475e-04  1.69447653e-03
  1.91961819e-03  9.28310991e-03  1.33904867e-02  1.33904867e-02
  1.41474650e-02  2.46599109e-02  2.46599109e-02  2.61059120e-02
  2.61059120e-02  2.68068996e-02]
        5      -0.130652559534       0.000103810021 

roots [-1.46146375e-01 -5.42707999e-02 -2.70342297e-02 -2.33254980e-02
 -1.50332029e-02 -1.36399409e-02 -1.15850341e-02 -6.94482862e-03
 -4.46030372e-03 -3.71940262e-03 -3.31659565e-03 -2.79717755e-03
 -1.87557651e-03 -1.37920947e-03 -1.08771357e-03 -9.70757518e-04
 -7.06734313e-04 -6.40005622e-04  8.69953769e-06  3.57448591e-05
  2.66535630e-04  6.40005622e-04  1.08771357e-03  1.66355190e-03
  1.87557651e-03  3.31659565e-03  4.46030372e-03  1.36399409e-02
  1.50332029e-02  2.70342297e-02]
roots [-6.03067980e-02 -2.60591849e-02 -2.60591849e-02 -2.46386360e-02
 -1.41126044e-02 -1.33786284e-02 -1.33786284e-02 -2.07084441e-03
 -1.98669215e-03 -1.97874399e-04 -1.97874399e-04 -1.91757406e-05
 -8.80260362e-06 -4.06110735e-07  3.59397761e-17  5.41400246e-17
  9.73020787e-05  1.97874399e-04  1.97874399e-04  1.69582938e-03
  1.92134329e-03  9.27554816e-03  1.33786284e-02  1.33786284e-02
  1.41247796e-02  2.46386360e-02  2.46386360e-02  2.60591849e-02
  2.60591849e-02  2.67518850e-02]
roots [-6.03067980e-02 -2.60591849e-02 -2.60591849e-02 -2.46386360e-02
 -1.41126044e-02 -1.33786284e-02 -1.33786284e-02 -2.07084441e-03
 -1.98669215e-03 -1.97874399e-04 -1.97874399e-04 -1.91757406e-05
 -8.80260362e-06 -4.06110734e-07  7.58209549e-17  9.02961958e-17
  9.73020787e-05  1.97874399e-04  1.97874399e-04  1.69582938e-03
  1.92134329e-03  9.27554816e-03  1.33786284e-02  1.33786284e-02
  1.41247796e-02  2.46386360e-02  2.46386360e-02  2.60591849e-02
  2.60591849e-02  2.67518850e-02]
        6      -0.130650007082       0.000002552452 

roots [-1.46147232e-01 -5.42680401e-02 -2.70323253e-02 -2.33253667e-02
 -1.50344112e-02 -1.36394891e-02 -1.15859758e-02 -6.94440306e-03
 -4.45976977e-03 -3.71807159e-03 -3.31708930e-03 -2.79710501e-03
 -1.87557698e-03 -1.37924531e-03 -1.08756749e-03 -9.70757714e-04
 -7.06921604e-04 -6.39938331e-04  8.70359749e-06  3.57435629e-05
  2.66572741e-04  6.39938331e-04  1.08756749e-03  1.66399631e-03
  1.87557698e-03  3.31708930e-03  4.45976977e-03  1.36394891e-02
  1.50344112e-02  2.70323253e-02]
roots [-6.03064034e-02 -2.60582990e-02 -2.60582990e-02 -2.46393481e-02
 -1.41123424e-02 -1.33790535e-02 -1.33790535e-02 -2.07095664e-03
 -1.98681126e-03 -1.97875748e-04 -1.97875748e-04 -1.91739046e-05
 -8.80191405e-06 -4.06222517e-07  4.16230336e-17  6.54680860e-17
  9.72944232e-05  1.97875748e-04  1.97875748e-04  1.69595420e-03
  1.92146262e-03  9.27588373e-03  1.33790535e-02  1.33790535e-02
  1.41245163e-02  2.46393481e-02  2.46393481e-02  2.60582990e-02
  2.60582990e-02  2.67504363e-02]
roots [-6.03064034e-02 -2.60582990e-02 -2.60582990e-02 -2.46393481e-02
 -1.41123424e-02 -1.33790535e-02 -1.33790535e-02 -2.07095664e-03
 -1.98681127e-03 -1.97875748e-04 -1.97875748e-04 -1.91739046e-05
 -8.80191405e-06 -4.06222516e-07  8.94576684e-17  1.07892162e-16
  9.72944232e-05  1.97875748e-04  1.97875748e-04  1.69595420e-03
  1.92146262e-03  9.27588373e-03  1.33790535e-02  1.33790535e-02
  1.41245163e-02  2.46393481e-02  2.46393481e-02  2.60582990e-02
  2.60582990e-02  2.67504363e-02]
        7      -0.130649986067       0.000000021015 

roots [-1.46147246e-01 -5.42679618e-02 -2.70322906e-02 -2.33254242e-02
 -1.50344765e-02 -1.36394295e-02 -1.15859860e-02 -6.94437917e-03
 -4.45975067e-03 -3.71793314e-03 -3.31708700e-03 -2.79710056e-03
 -1.87555749e-03 -1.37924575e-03 -1.08758929e-03 -9.70757889e-04
 -7.06914755e-04 -6.39962503e-04  8.70158523e-06  3.57429764e-05
  2.66516617e-04  6.39962503e-04  1.08758929e-03  1.66401258e-03
  1.87555749e-03  3.31708700e-03  4.45975067e-03  1.36394295e-02
  1.50344765e-02  2.70322906e-02]
roots [-6.03064218e-02 -2.60582744e-02 -2.60582744e-02 -2.46394221e-02
 -1.41123151e-02 -1.33790742e-02 -1.33790742e-02 -2.07096337e-03
 -1.98681752e-03 -1.97876030e-04 -1.97876030e-04 -1.91738538e-05
 -8.80191558e-06 -4.06230393e-07  4.61372151e-17  7.34237098e-17
  9.72941673e-05  1.97876030e-04  1.97876030e-04  1.69595830e-03
  1.92146908e-03  9.27588897e-03  1.33790742e-02  1.33790742e-02
  1.41244890e-02  2.46394221e-02  2.46394221e-02  2.60582744e-02
  2.60582744e-02  2.67503783e-02]
roots [-6.03064218e-02 -2.60582744e-02 -2.60582744e-02 -2.46394221e-02
 -1.41123151e-02 -1.33790742e-02 -1.33790742e-02 -2.07096337e-03
 -1.98681753e-03 -1.97876030e-04 -1.97876030e-04 -1.91738538e-05
 -8.80191558e-06 -4.06230392e-07  9.99717125e-17  1.19871333e-16
  9.72941673e-05  1.97876030e-04  1.97876030e-04  1.69595830e-03
  1.92146908e-03  9.27588897e-03  1.33790742e-02  1.33790742e-02
  1.41244890e-02  2.46394221e-02  2.46394221e-02  2.60582744e-02
  2.60582744e-02  2.67503783e-02]
        8      -0.130650018076       0.000000032009 

roots [-1.46147245e-01 -5.42679596e-02 -2.70322963e-02 -2.33254467e-02
 -1.50344888e-02 -1.36394074e-02 -1.15859677e-02 -6.94436988e-03
 -4.45974531e-03 -3.71789507e-03 -3.31708502e-03 -2.79709565e-03
 -1.87554944e-03 -1.37924554e-03 -1.08758649e-03 -9.70757819e-04
 -7.06909442e-04 -6.39959924e-04  8.70183426e-06  3.57430379e-05
  2.66524164e-04  6.39959924e-04  1.08758649e-03  1.66401625e-03
  1.87554944e-03  3.31708502e-03  4.45974531e-03  1.36394074e-02
  1.50344888e-02  2.70322963e-02]
roots [-6.03064304e-02 -2.60582715e-02 -2.60582715e-02 -2.46394449e-02
 -1.41123057e-02 -1.33790781e-02 -1.33790781e-02 -2.07096494e-03
 -1.98681871e-03 -1.97876173e-04 -1.97876173e-04 -1.91738563e-05
 -8.80193182e-06 -4.06229490e-07  5.29455637e-17  8.22117731e-17
  9.72941428e-05  1.97876173e-04  1.97876173e-04  1.69595844e-03
  1.92147032e-03  9.27588752e-03  1.33790781e-02  1.33790781e-02
  1.41244795e-02  2.46394449e-02  2.46394449e-02  2.60582715e-02
  2.60582715e-02  2.67503669e-02]
roots [-6.03064304e-02 -2.60582715e-02 -2.60582715e-02 -2.46394449e-02
 -1.41123057e-02 -1.33790781e-02 -1.33790781e-02 -2.07096494e-03
 -1.98681872e-03 -1.97876173e-04 -1.97876173e-04 -1.91738563e-05
 -8.80193182e-06 -4.06229489e-07  1.10597947e-16  1.34737571e-16
  9.72941428e-05  1.97876173e-04  1.97876173e-04  1.69595844e-03
  1.92147032e-03  9.27588751e-03  1.33790781e-02  1.33790781e-02
  1.41244795e-02  2.46394449e-02  2.46394449e-02  2.60582715e-02
  2.60582715e-02  2.67503669e-02]
        9      -0.130650017234       0.000000000843 

roots [-1.46147245e-01 -5.42679589e-02 -2.70322967e-02 -2.33254469e-02
 -1.50344887e-02 -1.36394047e-02 -1.15859650e-02 -6.94437011e-03
 -4.45974512e-03 -3.71789472e-03 -3.31708610e-03 -2.79709551e-03
 -1.87554837e-03 -1.37924558e-03 -1.08758670e-03 -9.70757830e-04
 -7.06909498e-04 -6.39960028e-04  8.70182807e-06  3.57430404e-05
  2.66524250e-04  6.39960028e-04  1.08758670e-03  1.66401643e-03
  1.87554837e-03  3.31708610e-03  4.45974512e-03  1.36394047e-02
  1.50344887e-02  2.70322967e-02]
roots [-6.03064311e-02 -2.60582712e-02 -2.60582712e-02 -2.46394465e-02
 -1.41123054e-02 -1.33790785e-02 -1.33790785e-02 -2.07096513e-03
 -1.98681884e-03 -1.97876181e-04 -1.97876181e-04 -1.91738586e-05
 -8.80193654e-06 -4.06229106e-07  5.75984400e-17  9.05560398e-17
  9.72941479e-05  1.97876181e-04  1.97876181e-04  1.69595847e-03
  1.92147042e-03  9.27588768e-03  1.33790785e-02  1.33790785e-02
  1.41244792e-02  2.46394465e-02  2.46394465e-02  2.60582712e-02
  2.60582712e-02  2.67503661e-02]
roots [-6.03064311e-02 -2.60582712e-02 -2.60582712e-02 -2.46394465e-02
 -1.41123054e-02 -1.33790785e-02 -1.33790785e-02 -2.07096513e-03
 -1.98681884e-03 -1.97876181e-04 -1.97876181e-04 -1.91738586e-05
 -8.80193654e-06 -4.06229105e-07  1.25294479e-16  1.50960804e-16
  9.72941479e-05  1.97876181e-04  1.97876181e-04  1.69595847e-03
  1.92147042e-03  9.27588768e-03  1.33790785e-02  1.33790785e-02
  1.41244792e-02  2.46394465e-02  2.46394465e-02  2.60582712e-02
  2.60582712e-02  2.67503661e-02]
       10      -0.130650017211       0.000000000022 

roots [-1.46147245e-01 -5.42679589e-02 -2.70322968e-02 -2.33254469e-02
 -1.50344887e-02 -1.36394046e-02 -1.15859650e-02 -6.94437016e-03
 -4.45974509e-03 -3.71789476e-03 -3.31708622e-03 -2.79709549e-03
 -1.87554834e-03 -1.37924558e-03 -1.08758670e-03 -9.70757830e-04
 -7.06909472e-04 -6.39960033e-04  8.70182927e-06  3.57430394e-05
  2.66524274e-04  6.39960033e-04  1.08758670e-03  1.66401643e-03
  1.87554834e-03  3.31708622e-03  4.45974509e-03  1.36394046e-02
  1.50344887e-02  2.70322968e-02]
roots [-6.03064310e-02 -2.60582711e-02 -2.60582711e-02 -2.46394466e-02
 -1.41123054e-02 -1.33790786e-02 -1.33790786e-02 -2.07096514e-03
 -1.98681885e-03 -1.97876182e-04 -1.97876182e-04 -1.91738588e-05
 -8.80193676e-06 -4.06229088e-07  6.38711224e-17  9.96333931e-17
  9.72941481e-05  1.97876182e-04  1.97876182e-04  1.69595847e-03
  1.92147043e-03  9.27588770e-03  1.33790786e-02  1.33790786e-02
  1.41244792e-02  2.46394466e-02  2.46394466e-02  2.60582711e-02
  2.60582711e-02  2.67503659e-02]
roots [-6.03064310e-02 -2.60582711e-02 -2.60582711e-02 -2.46394466e-02
 -1.41123054e-02 -1.33790786e-02 -1.33790786e-02 -2.07096514e-03
 -1.98681885e-03 -1.97876182e-04 -1.97876182e-04 -1.91738588e-05
 -8.80193676e-06 -4.06229087e-07  1.36827815e-16  1.64988946e-16
  9.72941481e-05  1.97876182e-04  1.97876182e-04  1.69595847e-03
  1.92147043e-03  9.27588770e-03  1.33790786e-02  1.33790786e-02
  1.41244792e-02  2.46394466e-02  2.46394466e-02  2.60582711e-02
  2.60582711e-02  2.67503659e-02]
       11      -0.130650017214       0.000000000003 

roots [-1.46147245e-01 -5.42679588e-02 -2.70322968e-02 -2.33254470e-02
 -1.50344887e-02 -1.36394046e-02 -1.15859650e-02 -6.94437017e-03
 -4.45974509e-03 -3.71789475e-03 -3.31708621e-03 -2.79709549e-03
 -1.87554832e-03 -1.37924558e-03 -1.08758670e-03 -9.70757830e-04
 -7.06909461e-04 -6.39960035e-04  8.70182905e-06  3.57430396e-05
  2.66524278e-04  6.39960035e-04  1.08758670e-03  1.66401641e-03
  1.87554832e-03  3.31708621e-03  4.45974509e-03  1.36394046e-02
  1.50344887e-02  2.70322968e-02]
roots [-6.03064310e-02 -2.60582711e-02 -2.60582711e-02 -2.46394466e-02
 -1.41123054e-02 -1.33790786e-02 -1.33790786e-02 -2.07096514e-03
 -1.98681884e-03 -1.97876182e-04 -1.97876182e-04 -1.91738588e-05
 -8.80193677e-06 -4.06229088e-07  6.88941056e-17  1.09861695e-16
  9.72941481e-05  1.97876182e-04  1.97876182e-04  1.69595847e-03
  1.92147043e-03  9.27588771e-03  1.33790786e-02  1.33790786e-02
  1.41244792e-02  2.46394466e-02  2.46394466e-02  2.60582711e-02
  2.60582711e-02  2.67503659e-02]
roots [-6.03064310e-02 -2.60582711e-02 -2.60582711e-02 -2.46394466e-02
 -1.41123054e-02 -1.33790786e-02 -1.33790786e-02 -2.07096514e-03
 -1.98681885e-03 -1.97876182e-04 -1.97876182e-04 -1.91738588e-05
 -8.80193677e-06 -4.06229087e-07  1.46270238e-16  1.78014805e-16
  9.72941481e-05  1.97876182e-04  1.97876182e-04  1.69595847e-03
  1.92147043e-03  9.27588771e-03  1.33790786e-02  1.33790786e-02
  1.41244792e-02  2.46394466e-02  2.46394466e-02  2.60582711e-02
  2.60582711e-02  2.67503659e-02]
       12      -0.130650017217       0.000000000003 

roots [-1.46147245e-01 -5.42679588e-02 -2.70322968e-02 -2.33254470e-02
 -1.50344887e-02 -1.36394046e-02 -1.15859650e-02 -6.94437017e-03
 -4.45974509e-03 -3.71789475e-03 -3.31708621e-03 -2.79709549e-03
 -1.87554832e-03 -1.37924558e-03 -1.08758670e-03 -9.70757830e-04
 -7.06909460e-04 -6.39960035e-04  8.70182906e-06  3.57430396e-05
  2.66524278e-04  6.39960035e-04  1.08758670e-03  1.66401641e-03
  1.87554832e-03  3.31708621e-03  4.45974509e-03  1.36394046e-02
  1.50344887e-02  2.70322968e-02]
roots [-6.03064310e-02 -2.60582711e-02 -2.60582711e-02 -2.46394466e-02
 -1.41123054e-02 -1.33790786e-02 -1.33790786e-02 -2.07096514e-03
 -1.98681884e-03 -1.97876182e-04 -1.97876182e-04 -1.91738588e-05
 -8.80193677e-06 -4.06229089e-07  7.32052849e-17  1.18792061e-16
  9.72941481e-05  1.97876182e-04  1.97876182e-04  1.69595847e-03
  1.92147043e-03  9.27588771e-03  1.33790786e-02  1.33790786e-02
  1.41244792e-02  2.46394466e-02  2.46394466e-02  2.60582711e-02
  2.60582711e-02  2.67503659e-02]
roots [-6.03064310e-02 -2.60582711e-02 -2.60582711e-02 -2.46394466e-02
 -1.41123054e-02 -1.33790786e-02 -1.33790786e-02 -2.07096514e-03
 -1.98681885e-03 -1.97876182e-04 -1.97876182e-04 -1.91738588e-05
 -8.80193677e-06 -4.06229088e-07  1.60788731e-16  1.93409919e-16
  9.72941481e-05  1.97876182e-04  1.97876182e-04  1.69595847e-03
  1.92147043e-03  9.27588771e-03  1.33790786e-02  1.33790786e-02
  1.41244792e-02  2.46394466e-02  2.46394466e-02  2.60582711e-02
  2.60582711e-02  2.67503659e-02]
       13      -0.130650017216       0.000000000001 





DiagCCD  correlation contribution: -0.1306500172164533
DiagCCD  energy: -100.11405895049887




