#INFO: **** input file is /blue/bartlett/z.windom/MOLSSI_develop/test/build_T2_interfaces/RECORDS/verify_spin_CCD/pyscfCode/N2_equil_UHF/run_pyscf.py ****
import numpy as np
import pyscf
from pyscf import ao2mo


def main():
    """ Initialize calculation details, 2e- integrals, Fock matrix, etc """

    # run pyscf for some reason
    basis = '6-31G'#'ccpvdz'
    mol = pyscf.M(
        atom='H 0 0 0; F 0 0 {}'.format(0.917), #'N 0 0 0; N 0 0 {}'.format(2.0749193),
        #atom='Be 0 0 0'
        verbose=5,
        #unit='b',
        basis=basis)


    mf = mol.UHF()
    mf.init_guess='1e'
    mf.conv_tol_grad=1E-10
    mf.run()

    from pyscf.lib import logger

    def stable_opt_internal(mf):
        log = logger.new_logger(mf)
        mo1, _, stable, _ = mf.stability(return_status=True)
        cyc = 0
        while (not stable and cyc < 10):
            log.note('Try to optimize orbitals until stable, attempt %d' % cyc)
            dm1 = mf.make_rdm1(mo1, mf.mo_occ)
            mf = mf.run(dm1)
            mo1, _, stable, _ = mf.stability(return_status=True)
            cyc += 1
        if not stable:
            log.note('Stability Opt failed after %d attempts' % cyc)
        return mf
    print('loop example')
    mf = stable_opt_internal(mf)

    orb=mf.mo_coeff
    print(np.shape(mf.get_hcore()))
    print(np.shape(orb))
    import run_ccd as run_ccd 
 
    cc_runtype={"ccdType":"CCDQf-1"}

    run_ccd.ccd_main(mf,mol,orb,cc_runtype)


main()
#INFO: ******************** input file end ********************


System: uname_result(system='Linux', node='login6.ufhpc', release='3.10.0-1160.80.1.el7.x86_64', version='#1 SMP Sat Oct 8 18:13:21 UTC 2022', machine='x86_64', processor='x86_64')  Threads 28
Python 3.7.12 | packaged by conda-forge | (default, Oct 26 2021, 06:08:21) 
[GCC 9.4.0]
numpy 1.21.6  scipy 1.7.3
Date: Mon Jan 30 09:18:15 2023
PySCF version 2.1.1
PySCF path  /blue/bartlett/z.windom/MOLSSI_develop/T2method/new/pyscf
GIT ORIG_HEAD 41535e74b1de6eb21fc9b6a13c089d6cd55b35d7
GIT HEAD (branch master) ff882f83f5730ea5610d52cc5b88d278f9b71da7

[ENV] PYSCF_INC_DIR /home/z.windom/libxc-4.3.4
[CONFIG] conf_file /home/z.windom/.pyscf_conf.py
[INPUT] verbose = 5
[INPUT] max_memory = 4000 
[INPUT] num. atoms = 2
[INPUT] num. electrons = 10
[INPUT] charge = 0
[INPUT] spin (= nelec alpha-beta = 2S) = 0
[INPUT] symmetry False subgroup None
[INPUT] Mole.unit = angstrom
[INPUT] Symbol           X                Y                Z      unit          X                Y                Z       unit  Magmom
[INPUT]  1 H      0.000000000000   0.000000000000   0.000000000000 AA    0.000000000000   0.000000000000   0.000000000000 Bohr   0.0
[INPUT]  2 F      0.000000000000   0.000000000000   0.917000000000 AA    0.000000000000   0.000000000000   1.732878856226 Bohr   0.0
[INPUT] ---------------- BASIS SET ---------------- 
[INPUT] l, kappa, [nprim/nctr], expnt,             c_1 c_2 ...
[INPUT] H
[INPUT] 0    0    [3    /1   ]  18.731137         0.0334946
                                2.8253937         0.23472695
                                0.6401217         0.81375733
[INPUT] 0    0    [1    /1   ]  0.1612778            1
[INPUT] F
[INPUT] 0    0    [6    /1   ]  7001.71309        0.0018196169
                                1051.36609        0.0139160796
                                239.28569         0.0684053245
                                67.3974453        0.23318576
                                21.5199573        0.471267439
                                7.4031013         0.356618546
[INPUT] 0    0    [3    /1   ]  20.8479528        -0.108506975
                                4.80830834        -0.146451658
                                1.34406986        1.12868858
[INPUT] 0    0    [1    /1   ]  0.358151393          1
[INPUT] 1    0    [3    /1   ]  20.8479528        0.0716287243
                                4.80830834        0.345912103
                                1.34406986        0.722469957
[INPUT] 1    0    [1    /1   ]  0.358151393          1

nuclear repulsion = 5.19366946377317
number of shells = 7
number of NR pGTOs = 26
number of NR cGTOs = 11
basis = 6-31G
ecp = {}
CPU time:         2.30


******** <class 'pyscf.scf.uhf.UHF'> ********
method = UHF
initial guess = 1e
damping factor = 0
level_shift factor = 0
DIIS = <class 'pyscf.scf.diis.CDIIS'>
diis_start_cycle = 1
diis_space = 8
SCF conv_tol = 1e-09
SCF conv_tol_grad = 1e-10
SCF max_cycles = 50
direct_scf = True
direct_scf_tol = 1e-13
chkfile to save SCF result = /blue/bartlett/z.windom/MOLSSI_develop/test/build_T2_interfaces/RECORDS/verify_spin_CCD/pyscfCode/N2_equil_UHF/tmpov6e4905
max_memory 4000 MB (current use 85 MB)
number electrons alpha = 5  beta = 5
Initial guess from hcore.
  alpha nocc = 5  HOMO = -10.0936607887869  LUMO = -5.09275799553285
  beta  nocc = 5  HOMO = -10.0936607887869  LUMO = -5.09275799553285
  alpha mo_energy =
[-41.02296897 -10.44106609 -10.09553976 -10.09366079 -10.09366079
  -5.092758    -4.46049268  -4.406218    -4.406218    -3.81136747
  -2.66937615]
  beta  mo_energy =
[-41.02296897 -10.44106609 -10.09553976 -10.09366079 -10.09366079
  -5.092758    -4.46049268  -4.406218    -4.406218    -3.81136747
  -2.66937615]
multiplicity <S^2> = 0  2S+1 = 1
E1 = -163.11304118007217  Ecoul = 64.29824950165359
init E= -93.6211222146454
cond(S) = 25.594965630916704
    CPU time for initialize scf      0.83 sec, wall time      0.04 sec

WARN: alpha nocc = 5  HOMO 0.542024842708576 >= LUMO 0.542024842708578


WARN: beta  nocc = 5  HOMO 0.546137462869172 >= LUMO 0.546137462869184

  alpha mo_energy =
[-22.4812788   -0.41201957   0.13359938   0.45986465   0.54202484
   0.54202484   1.31849429   2.38135869   2.38135869   2.44055339
   2.69685047]
  beta  mo_energy =
[-22.4834938   -0.36148959   0.12811038   0.46958933   0.54613746
   0.54613746   1.31578262   2.3830793    2.3830793    2.44019944
   2.69780083]
multiplicity <S^2> = 0.94405599  2S+1 = 2.1854574
E1 = -133.4087521665151  Ecoul = 31.823421042717058
cycle= 1 E= -96.3916616600249  delta_E= -2.77  |g|= 2.63  |ddm|=  6.2
    CPU time for cycle= 1      0.17 sec, wall time      0.01 sec
  alpha nocc = 5  HOMO = -1.44428709598777  LUMO = -0.168201580088026
  beta  nocc = 5  HOMO = -1.44310945876791  LUMO = -0.171927055527224
  alpha mo_energy =
[-29.30858004  -2.94533292  -2.07030635  -2.01649425  -1.4442871
  -0.16820158   0.4453095    0.45270354   0.59214319   0.91295171
   1.26147263]
  beta  mo_energy =
[-29.30769484  -2.94141591  -2.0679119   -2.00855052  -1.44310946
  -0.17192706   0.44371755   0.45235996   0.59206793   0.9094157
   1.26096089]
multiplicity <S^2> = 0.0073714398  2S+1 = 1.0146358
E1 = -158.69780585162323  Ecoul = 54.90283258457531
cycle= 2 E= -98.6013038032747  delta_E= -2.21  |g|= 1.95  |ddm|= 5.35
    CPU time for cycle= 2      0.26 sec, wall time      0.01 sec
  alpha nocc = 5  HOMO = -0.581236834682662  LUMO = 0.0573757780720029
  beta  nocc = 5  HOMO = -0.580707202654088  LUMO = 0.0570411640544374
  alpha mo_energy =
[-26.6174998   -1.8128326   -0.9503652   -0.87946298  -0.58123683
   0.05737578   1.03752807   1.23333356   1.26674389   1.33660389
   1.81435422]
  beta  mo_energy =
[-26.61687896  -1.81068542  -0.94861703  -0.87846205  -0.5807072
   0.05704116   1.03518525   1.23358288   1.26695738   1.33653929
   1.81518892]
multiplicity <S^2> = 0.0010063621  2S+1 = 1.0020107
E1 = -152.8569646131044  Ecoul = 47.777922398785634
cycle= 3 E= -99.8853727505456  delta_E= -1.28  |g|= 0.518  |ddm|= 0.871
    CPU time for cycle= 3      0.29 sec, wall time      0.01 sec
  alpha nocc = 5  HOMO = -0.653311405575483  LUMO = 0.183624142659713
  beta  nocc = 5  HOMO = -0.652877310270116  LUMO = 0.183935241526969
  alpha mo_energy =
[-26.39681057  -1.63332582  -0.78925231  -0.66191216  -0.65331141
   0.18362414   1.08653353   1.47599807   1.4786905    1.58036384
   1.98184935]
  beta  mo_energy =
[-26.3963891   -1.63229804  -0.78879559  -0.66137401  -0.65287731
   0.18393524   1.08571904   1.47626773   1.47891288   1.58072965
   1.98240451]
multiplicity <S^2> = 5.1138919e-05  2S+1 = 1.0001023
E1 = -151.00658454358688  Ecoul = 45.83382284039111
cycle= 4 E= -99.9790922394226  delta_E= -0.0937  |g|= 0.0865  |ddm|= 0.255
    CPU time for cycle= 4      0.31 sec, wall time      0.01 sec
  alpha nocc = 5  HOMO = -0.621459805667169  LUMO = 0.207968815867177
  beta  nocc = 5  HOMO = -0.621216279146074  LUMO = 0.208007582645524
  alpha mo_energy =
[-26.26492753  -1.58527585  -0.73912024  -0.62549015  -0.62145981
   0.20796882   1.1156276    1.49040771   1.49054759   1.59288626
   2.00628822]
  beta  mo_energy =
[-26.26473152  -1.58479767  -0.73862867  -0.62523605  -0.62121628
   0.20800758   1.11515466   1.49054028   1.49068884   1.59319602
   2.00651054]
multiplicity <S^2> = 2.6034971e-06  2S+1 = 1.0000052
E1 = -150.62094485503346  Ecoul = 45.4439339154604
cycle= 5 E= -99.9833414757999  delta_E= -0.00425  |g|= 0.00818  |ddm|= 0.0864
    CPU time for cycle= 5      0.30 sec, wall time      0.01 sec
  alpha nocc = 5  HOMO = -0.630826215404416  LUMO = 0.209252243560371
  beta  nocc = 5  HOMO = -0.630695973193874  LUMO = 0.209269091339851
  alpha mo_energy =
[-26.27671599  -1.59000963  -0.73983401  -0.63150588  -0.63082622
   0.20925224   1.11662982   1.48905101   1.48921553   1.59237432
   2.0056012 ]
  beta  mo_energy =
[-26.27660564  -1.58976797  -0.7394962   -0.63137512  -0.63069597
   0.20926909   1.11639378   1.48912507   1.48928924   1.59258336
   2.00571985]
multiplicity <S^2> = 9.5594233e-07  2S+1 = 1.0000019
E1 = -150.6270554726334  Ecoul = 45.44997907175948
cycle= 6 E= -99.9834069371007  delta_E= -6.55e-05  |g|= 0.00171  |ddm|= 0.0125
    CPU time for cycle= 6      0.29 sec, wall time      0.01 sec
  alpha nocc = 5  HOMO = -0.631160398306254  LUMO = 0.209627126396725
  beta  nocc = 5  HOMO = -0.631089247990502  LUMO = 0.209635973190797
  alpha mo_energy =
[-26.2762651   -1.58994162  -0.73934549  -0.63137599  -0.6311604
   0.20962713   1.1168402    1.48922254   1.48931477   1.59292023
   2.0059205 ]
  beta  mo_energy =
[-26.27620279  -1.58980395  -0.73913851  -0.63130491  -0.63108925
   0.20963597   1.11670253   1.4892613    1.48935391   1.59304726
   2.00598637]
multiplicity <S^2> = 3.2392987e-07  2S+1 = 1.0000006
E1 = -150.6231268649829  Ecoul = 45.446048592754416
cycle= 7 E= -99.9834088084553  delta_E= -1.87e-06  |g|= 0.000475  |ddm|= 0.00181
    CPU time for cycle= 7      0.34 sec, wall time      0.01 sec
  alpha nocc = 5  HOMO = -0.631014995628672  LUMO = 0.209681612123756
  beta  nocc = 5  HOMO = -0.630977367269829  LUMO = 0.209687190244149
  alpha mo_energy =
[-26.27569099  -1.58962518  -0.73901011  -0.63103836  -0.631015
   0.20968161   1.11684734   1.48945994   1.48946817   1.5931769
   2.00609875]
  beta  mo_energy =
[-26.27565694  -1.58955015  -0.73889691  -0.63100072  -0.63097737
   0.20968719   1.11677147   1.48948038   1.48948858   1.5932473
   2.00613575]
multiplicity <S^2> = 9.6909318e-08  2S+1 = 1.0000002
E1 = -150.6214218683174  Ecoul = 45.44434349120097
cycle= 8 E= -99.9834089133433  delta_E= -1.05e-07  |g|= 9.95e-05  |ddm|= 0.000362
    CPU time for cycle= 8      0.30 sec, wall time      0.01 sec
  alpha nocc = 5  HOMO = -0.630998581130424  LUMO = 0.209713884321236
  beta  nocc = 5  HOMO = -0.630997795522537  LUMO = 0.209713991975893
  alpha mo_energy =
[-26.27566977  -1.58958416  -0.73895625  -0.63104397  -0.63099858
   0.20971388   1.11683138   1.48948431   1.4895004    1.59322793
   2.00613488]
  beta  mo_energy =
[-26.27566845  -1.58958082  -0.73894991  -0.6310432   -0.6309978
   0.20971399   1.11682715   1.4894845    1.48950062   1.59323178
   2.00613674]
multiplicity <S^2> = 7.0194872e-10  2S+1 = 1
E1 = -150.62118934410597  Ecoul = 45.44411094864526
cycle= 9 E= -99.9834089316875  delta_E= -1.83e-08  |g|= 5.98e-05  |ddm|= 0.000296
    CPU time for cycle= 9      0.31 sec, wall time      0.01 sec
  alpha nocc = 5  HOMO = -0.631030621894221  LUMO = 0.209691479844269
  beta  nocc = 5  HOMO = -0.631030375506862  LUMO = 0.209691622748741
  alpha mo_energy =
[-26.27571877  -1.5896085   -0.73897645  -0.63103498  -0.63103062
   0.20969148   1.11681296   1.48946793   1.48947129   1.59320279
   2.00611212]
  beta  mo_energy =
[-26.27571838  -1.58960754  -0.73897475  -0.63103473  -0.63103038
   0.20969162   1.11681168   1.48946799   1.48947136   1.5932039
   2.00611272]
multiplicity <S^2> = 5.7911897e-11  2S+1 = 1
E1 = -150.62145011064626  Ecoul = 45.44437171361961
cycle= 10 E= -99.9834089332535  delta_E= -1.57e-09  |g|= 5.96e-06  |ddm|= 5.42e-05
    CPU time for cycle= 10      0.20 sec, wall time      0.01 sec
  alpha nocc = 5  HOMO = -0.631030582719914  LUMO = 0.20969373156392
  beta  nocc = 5  HOMO = -0.631030647481821  LUMO = 0.209693716357905
  alpha mo_energy =
[-26.27571509  -1.58960673  -0.73897582  -0.63103127  -0.63103058
   0.20969373   1.11681437   1.48947012   1.48947062   1.59320399
   2.00611372]
  beta  mo_energy =
[-26.2757151   -1.58960671  -0.73897567  -0.63103133  -0.63103065
   0.20969372   1.11681425   1.48947006   1.48947056   1.59320406
   2.00611375]
multiplicity <S^2> = 9.4591002e-13  2S+1 = 1
E1 = -150.62143761142795  Ecoul = 45.44435921437305
cycle= 11 E= -99.9834089332817  delta_E= -2.82e-11  |g|= 1.01e-06  |ddm|= 7.48e-06
    CPU time for cycle= 11      0.16 sec, wall time      0.01 sec
  alpha nocc = 5  HOMO = -0.631031085691675  LUMO = 0.209693695191166
  beta  nocc = 5  HOMO = -0.631031115842713  LUMO = 0.209693693859172
  alpha mo_energy =
[-26.27571494  -1.58960667  -0.7389755   -0.63103111  -0.63103109
   0.2096937    1.11681449   1.4894702    1.48947022   1.59320389
   2.00611371]
  beta  mo_energy =
[-26.27571495  -1.58960668  -0.7389755   -0.63103114  -0.63103112
   0.20969369   1.11681448   1.48947018   1.4894702    1.59320388
   2.00611371]
multiplicity <S^2> = 1.7763568e-15  2S+1 = 1
E1 = -150.62143804437315  Ecoul = 45.44435964731755
cycle= 12 E= -99.9834089332824  delta_E= -6.96e-13  |g|= 7.15e-08  |ddm|= 1.28e-06
    CPU time for cycle= 12      0.16 sec, wall time      0.01 sec
  alpha nocc = 5  HOMO = -0.63103111306387  LUMO = 0.20969370115405
  beta  nocc = 5  HOMO = -0.631031127363867  LUMO = 0.209693699942014
  alpha mo_energy =
[-26.27571496  -1.58960667  -0.73897552  -0.63103112  -0.63103111
   0.2096937    1.11681447   1.48947019   1.4894702    1.5932039
   2.00611371]
  beta  mo_energy =
[-26.27571497  -1.58960668  -0.73897552  -0.63103113  -0.63103113
   0.2096937    1.11681447   1.48947018   1.48947019   1.5932039
   2.00611371]
multiplicity <S^2> = 1.7763568e-15  2S+1 = 1
E1 = -150.62143797810455  Ecoul = 45.444359581048914
cycle= 13 E= -99.9834089332825  delta_E= -4.26e-14  |g|= 1.96e-08  |ddm|= 9.13e-08
    CPU time for cycle= 13      0.15 sec, wall time      0.01 sec
Linear dependence found in DIIS error vectors.
  alpha nocc = 5  HOMO = -0.631031116496172  LUMO = 0.209693700167387
  beta  nocc = 5  HOMO = -0.631031126995899  LUMO = 0.209693699277144
  alpha mo_energy =
[-26.27571496  -1.58960667  -0.73897552  -0.63103112  -0.63103112
   0.2096937    1.11681447   1.48947019   1.4894702    1.5932039
   2.00611371]
  beta  mo_energy =
[-26.27571497  -1.58960668  -0.73897552  -0.63103113  -0.63103113
   0.2096937    1.11681447   1.48947018   1.48947019   1.5932039
   2.00611371]
multiplicity <S^2> = 8.8817842e-16  2S+1 = 1
E1 = -150.62143797800064  Ecoul = 45.44435958094499
cycle= 14 E= -99.9834089332825  delta_E= -1.42e-14  |g|= 1.38e-08  |ddm|= 8.71e-09
    CPU time for cycle= 14      0.17 sec, wall time      0.01 sec
Linear dependence found in DIIS error vectors.
  alpha nocc = 5  HOMO = -0.631031117923417  LUMO = 0.209693699664412
  beta  nocc = 5  HOMO = -0.631031126586809  LUMO = 0.209693698936953
  alpha mo_energy =
[-26.27571496  -1.58960667  -0.73897552  -0.63103112  -0.63103112
   0.2096937    1.11681447   1.48947019   1.48947019   1.5932039
   2.00611371]
  beta  mo_energy =
[-26.27571497  -1.58960668  -0.73897552  -0.63103113  -0.63103113
   0.2096937    1.11681447   1.48947019   1.48947019   1.5932039
   2.00611371]
multiplicity <S^2> = 0  2S+1 = 1
E1 = -150.62143797808153  Ecoul = 45.44435958102592
cycle= 15 E= -99.9834089332824  delta_E= 4.26e-14  |g|= 1.12e-08  |ddm|= 3.98e-09
    CPU time for cycle= 15      0.16 sec, wall time      0.01 sec
Linear dependence found in DIIS error vectors.
  alpha nocc = 5  HOMO = -0.631031118515486  LUMO = 0.2096936989562
  beta  nocc = 5  HOMO = -0.631031126201802  LUMO = 0.209693698313177
  alpha mo_energy =
[-26.27571497  -1.58960667  -0.73897552  -0.63103112  -0.63103112
   0.2096937    1.11681447   1.48947019   1.48947019   1.5932039
   2.00611371]
  beta  mo_energy =
[-26.27571497  -1.58960668  -0.73897552  -0.63103113  -0.63103113
   0.2096937    1.11681447   1.48947019   1.48947019   1.5932039
   2.00611371]
multiplicity <S^2> = -1.7763568e-15  2S+1 = 1
E1 = -150.6214379838014  Ecoul = 45.444359586745804
cycle= 16 E= -99.9834089332824  delta_E= 1.42e-14  |g|= 9.79e-09  |ddm|= 4.13e-09
    CPU time for cycle= 16      0.21 sec, wall time      0.01 sec
Linear dependence found in DIIS error vectors.
  alpha nocc = 5  HOMO = -0.631031119159608  LUMO = 0.209693698819992
  beta  nocc = 5  HOMO = -0.63103112569665  LUMO = 0.209693698296415
  alpha mo_energy =
[-26.27571497  -1.58960667  -0.73897552  -0.63103112  -0.63103112
   0.2096937    1.11681447   1.48947019   1.48947019   1.5932039
   2.00611371]
  beta  mo_energy =
[-26.27571497  -1.58960668  -0.73897552  -0.63103113  -0.63103113
   0.2096937    1.11681447   1.48947019   1.48947019   1.5932039
   2.00611371]
multiplicity <S^2> = -1.7763568e-15  2S+1 = 1
E1 = -150.62143798329413  Ecoul = 45.444359586238555
cycle= 17 E= -99.9834089332824  delta_E= 2.84e-14  |g|= 8.7e-09  |ddm|= 3.37e-09
    CPU time for cycle= 17      0.21 sec, wall time      0.01 sec
Linear dependence found in DIIS error vectors.
  alpha nocc = 5  HOMO = -0.631031117799241  LUMO = 0.209693698857137
  beta  nocc = 5  HOMO = -0.631031124285679  LUMO = 0.209693698308209
  alpha mo_energy =
[-26.27571496  -1.58960667  -0.73897552  -0.63103112  -0.63103112
   0.2096937    1.11681447   1.48947019   1.48947019   1.5932039
   2.00611371]
  beta  mo_energy =
[-26.27571497  -1.58960668  -0.73897552  -0.63103113  -0.63103112
   0.2096937    1.11681447   1.48947019   1.48947019   1.5932039
   2.00611371]
multiplicity <S^2> = 5.3290705e-15  2S+1 = 1
E1 = -150.6214379757506  Ecoul = 45.444359578695014
cycle= 18 E= -99.9834089332824  delta_E= -2.84e-14  |g|= 8.37e-09  |ddm|= 3.68e-09
    CPU time for cycle= 18      0.39 sec, wall time      0.02 sec
Linear dependence found in DIIS error vectors.
  alpha nocc = 5  HOMO = -0.63103111810513  LUMO = 0.209693698758816
  beta  nocc = 5  HOMO = -0.631031124033698  LUMO = 0.209693698265435
  alpha mo_energy =
[-26.27571496  -1.58960667  -0.73897552  -0.63103112  -0.63103112
   0.2096937    1.11681447   1.48947019   1.48947019   1.5932039
   2.00611371]
  beta  mo_energy =
[-26.27571496  -1.58960668  -0.73897552  -0.63103113  -0.63103112
   0.2096937    1.11681447   1.48947019   1.48947019   1.5932039
   2.00611371]
multiplicity <S^2> = 0  2S+1 = 1
E1 = -150.62143797430576  Ecoul = 45.44435957725017
cycle= 19 E= -99.9834089332824  delta_E=    0  |g|= 7.69e-09  |ddm|= 1.27e-09
    CPU time for cycle= 19      0.37 sec, wall time      0.02 sec
Linear dependence found in DIIS error vectors.
  alpha nocc = 5  HOMO = -0.631031118429442  LUMO = 0.209693698661146
  beta  nocc = 5  HOMO = -0.631031124119127  LUMO = 0.209693698195495
  alpha mo_energy =
[-26.27571496  -1.58960667  -0.73897552  -0.63103112  -0.63103112
   0.2096937    1.11681447   1.48947019   1.48947019   1.5932039
   2.00611371]
  beta  mo_energy =
[-26.27571497  -1.58960668  -0.73897552  -0.63103113  -0.63103112
   0.2096937    1.11681447   1.48947019   1.48947019   1.5932039
   2.00611371]
multiplicity <S^2> = -8.8817842e-16  2S+1 = 1
E1 = -150.62143797593734  Ecoul = 45.444359578881716
cycle= 20 E= -99.9834089332824  delta_E= -2.84e-14  |g|= 7.5e-09  |ddm|= 2.26e-09
    CPU time for cycle= 20      0.38 sec, wall time      0.02 sec
Linear dependence found in DIIS error vectors.
  alpha nocc = 5  HOMO = -0.631031120767019  LUMO = 0.209693698504969
  beta  nocc = 5  HOMO = -0.631031124924586  LUMO = 0.209693698170963
  alpha mo_energy =
[-26.27571496  -1.58960667  -0.73897552  -0.63103112  -0.63103112
   0.2096937    1.11681447   1.48947019   1.48947019   1.5932039
   2.00611371]
  beta  mo_energy =
[-26.27571497  -1.58960668  -0.73897552  -0.63103113  -0.63103112
   0.2096937    1.11681447   1.48947019   1.48947019   1.5932039
   2.00611371]
multiplicity <S^2> = -2.6645353e-15  2S+1 = 1
E1 = -150.6214379781173  Ecoul = 45.44435958106169
cycle= 21 E= -99.9834089332824  delta_E=    0  |g|= 5.07e-09  |ddm|= 4.37e-09
    CPU time for cycle= 21      0.37 sec, wall time      0.02 sec
Linear dependence found in DIIS error vectors.
  alpha nocc = 5  HOMO = -0.63103112120131  LUMO = 0.20969369844231
  beta  nocc = 5  HOMO = -0.631031124716496  LUMO = 0.209693698161899
  alpha mo_energy =
[-26.27571496  -1.58960667  -0.73897552  -0.63103112  -0.63103112
   0.2096937    1.11681447   1.48947019   1.48947019   1.5932039
   2.00611371]
  beta  mo_energy =
[-26.27571497  -1.58960668  -0.73897552  -0.63103113  -0.63103112
   0.2096937    1.11681447   1.48947019   1.48947019   1.5932039
   2.00611371]
multiplicity <S^2> = 8.8817842e-16  2S+1 = 1
E1 = -150.62143797813653  Ecoul = 45.444359581080974
cycle= 22 E= -99.9834089332824  delta_E= 7.11e-14  |g|= 4.27e-09  |ddm|= 1.29e-09
    CPU time for cycle= 22      0.38 sec, wall time      0.02 sec
Linear dependence found in DIIS error vectors.
  alpha nocc = 5  HOMO = -0.631031121479549  LUMO = 0.209693698398735
  beta  nocc = 5  HOMO = -0.631031124551988  LUMO = 0.209693698154933
  alpha mo_energy =
[-26.27571497  -1.58960667  -0.73897552  -0.63103112  -0.63103112
   0.2096937    1.11681447   1.48947019   1.48947019   1.5932039
   2.00611371]
  beta  mo_energy =
[-26.27571497  -1.58960668  -0.73897552  -0.63103113  -0.63103112
   0.2096937    1.11681447   1.48947019   1.48947019   1.5932039
   2.00611371]
multiplicity <S^2> = -4.4408921e-15  2S+1 = 1
E1 = -150.6214379781819  Ecoul = 45.44435958112624
cycle= 23 E= -99.9834089332825  delta_E= -9.95e-14  |g|= 3.72e-09  |ddm|= 8.73e-10
    CPU time for cycle= 23      0.38 sec, wall time      0.02 sec
Linear dependence found in DIIS error vectors.
  alpha nocc = 5  HOMO = -0.631031121695564  LUMO = 0.209693698364696
  beta  nocc = 5  HOMO = -0.631031124413407  LUMO = 0.209693698150097
  alpha mo_energy =
[-26.27571497  -1.58960667  -0.73897552  -0.63103112  -0.63103112
   0.2096937    1.11681447   1.48947019   1.48947019   1.5932039
   2.00611371]
  beta  mo_energy =
[-26.27571497  -1.58960668  -0.73897552  -0.63103112  -0.63103112
   0.2096937    1.11681447   1.48947019   1.48947019   1.5932039
   2.00611371]
multiplicity <S^2> = 1.7763568e-15  2S+1 = 1
E1 = -150.62143797823137  Ecoul = 45.4443595811758
cycle= 24 E= -99.9834089332824  delta_E= 8.53e-14  |g|= 3.3e-09  |ddm|= 6.92e-10
    CPU time for cycle= 24      0.37 sec, wall time      0.02 sec
Linear dependence found in DIIS error vectors.
  alpha nocc = 5  HOMO = -0.631031121956194  LUMO = 0.209693698345409
  beta  nocc = 5  HOMO = -0.631031124355853  LUMO = 0.209693698157387
  alpha mo_energy =
[-26.27571497  -1.58960667  -0.73897552  -0.63103112  -0.63103112
   0.2096937    1.11681447   1.48947019   1.48947019   1.5932039
   2.00611371]
  beta  mo_energy =
[-26.27571497  -1.58960668  -0.73897552  -0.63103112  -0.63103112
   0.2096937    1.11681447   1.48947019   1.48947019   1.5932039
   2.00611371]
multiplicity <S^2> = -3.5527137e-15  2S+1 = 1
E1 = -150.62143797852136  Ecoul = 45.44435958146576
cycle= 25 E= -99.9834089332824  delta_E= -2.84e-14  |g|= 2.92e-09  |ddm|= 5.9e-10
    CPU time for cycle= 25      0.38 sec, wall time      0.02 sec
Linear dependence found in DIIS error vectors.
  alpha nocc = 5  HOMO = -0.63103112217612  LUMO = 0.209693698331375
  beta  nocc = 5  HOMO = -0.631031124318572  LUMO = 0.209693698162945
  alpha mo_energy =
[-26.27571497  -1.58960668  -0.73897552  -0.63103112  -0.63103112
   0.2096937    1.11681447   1.48947019   1.48947019   1.5932039
   2.00611371]
  beta  mo_energy =
[-26.27571497  -1.58960668  -0.73897552  -0.63103112  -0.63103112
   0.2096937    1.11681447   1.48947019   1.48947019   1.5932039
   2.00611371]
multiplicity <S^2> = -1.7763568e-15  2S+1 = 1
E1 = -150.62143797875868  Ecoul = 45.444359581703
cycle= 26 E= -99.9834089332825  delta_E= -8.53e-14  |g|= 2.59e-09  |ddm|= 5.88e-10
    CPU time for cycle= 26      0.38 sec, wall time      0.02 sec
Linear dependence found in DIIS error vectors.
  alpha nocc = 5  HOMO = -0.631031122345222  LUMO = 0.209693698328784
  beta  nocc = 5  HOMO = -0.631031124209424  LUMO = 0.209693698183772
  alpha mo_energy =
[-26.27571497  -1.58960668  -0.73897552  -0.63103112  -0.63103112
   0.2096937    1.11681447   1.48947019   1.48947019   1.5932039
   2.00611371]
  beta  mo_energy =
[-26.27571497  -1.58960668  -0.73897552  -0.63103112  -0.63103112
   0.2096937    1.11681447   1.48947019   1.48947019   1.5932039
   2.00611371]
multiplicity <S^2> = 8.8817842e-16  2S+1 = 1
E1 = -150.62143797844269  Ecoul = 45.44435958138709
cycle= 27 E= -99.9834089332824  delta_E= 8.53e-14  |g|= 2.26e-09  |ddm|= 5.31e-10
    CPU time for cycle= 27      0.38 sec, wall time      0.02 sec
Linear dependence found in DIIS error vectors.
  alpha nocc = 5  HOMO = -0.631031122488003  LUMO = 0.209693698330866
  beta  nocc = 5  HOMO = -0.631031124093531  LUMO = 0.209693698207112
  alpha mo_energy =
[-26.27571497  -1.58960668  -0.73897552  -0.63103112  -0.63103112
   0.2096937    1.11681447   1.48947019   1.48947019   1.5932039
   2.00611371]
  beta  mo_energy =
[-26.27571497  -1.58960668  -0.73897552  -0.63103112  -0.63103112
   0.2096937    1.11681447   1.48947019   1.48947019   1.5932039
   2.00611371]
multiplicity <S^2> = 0  2S+1 = 1
E1 = -150.6214379780481  Ecoul = 45.44435958099248
cycle= 28 E= -99.9834089332824  delta_E= -2.84e-14  |g|= 1.94e-09  |ddm|= 5.07e-10
    CPU time for cycle= 28      0.37 sec, wall time      0.02 sec
Linear dependence found in DIIS error vectors.
  alpha nocc = 5  HOMO = -0.631031122653843  LUMO = 0.209693698331344
  beta  nocc = 5  HOMO = -0.631031124002567  LUMO = 0.209693698227948
  alpha mo_energy =
[-26.27571497  -1.58960668  -0.73897552  -0.63103112  -0.63103112
   0.2096937    1.11681447   1.48947019   1.48947019   1.5932039
   2.00611371]
  beta  mo_energy =
[-26.27571497  -1.58960668  -0.73897552  -0.63103112  -0.63103112
   0.2096937    1.11681447   1.48947019   1.48947019   1.5932039
   2.00611371]
multiplicity <S^2> = 2.6645353e-15  2S+1 = 1
E1 = -150.62143797779714  Ecoul = 45.44435958074161
cycle= 29 E= -99.9834089332824  delta_E= 8.53e-14  |g|= 1.62e-09  |ddm|= 5.41e-10
    CPU time for cycle= 29      0.37 sec, wall time      0.02 sec
Linear dependence found in DIIS error vectors.
  alpha nocc = 5  HOMO = -0.631031122766246  LUMO = 0.209693698324768
  beta  nocc = 5  HOMO = -0.63103112393754  LUMO = 0.209693698235425
  alpha mo_energy =
[-26.27571497  -1.58960668  -0.73897552  -0.63103112  -0.63103112
   0.2096937    1.11681447   1.48947019   1.48947019   1.5932039
   2.00611371]
  beta  mo_energy =
[-26.27571497  -1.58960668  -0.73897552  -0.63103112  -0.63103112
   0.2096937    1.11681447   1.48947019   1.48947019   1.5932039
   2.00611371]
multiplicity <S^2> = -8.8817842e-16  2S+1 = 1
E1 = -150.62143797780573  Ecoul = 45.44435958075009
cycle= 30 E= -99.9834089332825  delta_E= -9.95e-14  |g|= 1.41e-09  |ddm|= 3.46e-10
    CPU time for cycle= 30      0.38 sec, wall time      0.02 sec
Linear dependence found in DIIS error vectors.
  alpha nocc = 5  HOMO = -0.631031122860116  LUMO = 0.209693698320033
  beta  nocc = 5  HOMO = -0.631031123883344  LUMO = 0.209693698242373
  alpha mo_energy =
[-26.27571497  -1.58960668  -0.73897552  -0.63103112  -0.63103112
   0.2096937    1.11681447   1.48947019   1.48947019   1.5932039
   2.00611371]
  beta  mo_energy =
[-26.27571497  -1.58960668  -0.73897552  -0.63103112  -0.63103112
   0.2096937    1.11681447   1.48947019   1.48947019   1.5932039
   2.00611371]
multiplicity <S^2> = -1.7763568e-15  2S+1 = 1
E1 = -150.62143797781223  Ecoul = 45.44435958075667
cycle= 31 E= -99.9834089332824  delta_E= 7.11e-14  |g|= 1.24e-09  |ddm|= 2.88e-10
    CPU time for cycle= 31      0.38 sec, wall time      0.02 sec
Linear dependence found in DIIS error vectors.
  alpha nocc = 5  HOMO = -0.631031122943226  LUMO = 0.209693698316666
  beta  nocc = 5  HOMO = -0.631031123837033  LUMO = 0.20969369824918
  alpha mo_energy =
[-26.27571497  -1.58960668  -0.73897552  -0.63103112  -0.63103112
   0.2096937    1.11681447   1.48947019   1.48947019   1.5932039
   2.00611371]
  beta  mo_energy =
[-26.27571497  -1.58960668  -0.73897552  -0.63103112  -0.63103112
   0.2096937    1.11681447   1.48947019   1.48947019   1.5932039
   2.00611371]
multiplicity <S^2> = -2.6645353e-15  2S+1 = 1
E1 = -150.62143797781783  Ecoul = 45.44435958076215
cycle= 32 E= -99.9834089332825  delta_E= -1.14e-13  |g|= 1.08e-09  |ddm|= 2.52e-10
    CPU time for cycle= 32      0.39 sec, wall time      0.02 sec
Linear dependence found in DIIS error vectors.
  alpha nocc = 5  HOMO = -0.631031123018553  LUMO = 0.209693698314435
  beta  nocc = 5  HOMO = -0.631031123797218  LUMO = 0.209693698255965
  alpha mo_energy =
[-26.27571497  -1.58960668  -0.73897552  -0.63103112  -0.63103112
   0.2096937    1.11681447   1.48947019   1.48947019   1.5932039
   2.00611371]
  beta  mo_energy =
[-26.27571497  -1.58960668  -0.73897552  -0.63103112  -0.63103112
   0.2096937    1.11681447   1.48947019   1.48947019   1.5932039
   2.00611371]
multiplicity <S^2> = 8.8817842e-16  2S+1 = 1
E1 = -150.6214379778225  Ecoul = 45.44435958076684
cycle= 33 E= -99.9834089332825  delta_E= 2.84e-14  |g|= 9.44e-10  |ddm|= 2.25e-10
    CPU time for cycle= 33      0.39 sec, wall time      0.02 sec
Linear dependence found in DIIS error vectors.
  alpha nocc = 5  HOMO = -0.631031123088305  LUMO = 0.209693698312155
  beta  nocc = 5  HOMO = -0.631031123764982  LUMO = 0.209693698261573
  alpha mo_energy =
[-26.27571497  -1.58960668  -0.73897552  -0.63103112  -0.63103112
   0.2096937    1.11681447   1.48947019   1.48947019   1.5932039
   2.00611371]
  beta  mo_energy =
[-26.27571497  -1.58960668  -0.73897552  -0.63103112  -0.63103112
   0.2096937    1.11681447   1.48947019   1.48947019   1.5932039
   2.00611371]
multiplicity <S^2> = -8.8817842e-16  2S+1 = 1
E1 = -150.6214379778495  Ecoul = 45.44435958079387
cycle= 34 E= -99.9834089332824  delta_E= 2.84e-14  |g|= 8.22e-10  |ddm|= 2.04e-10
    CPU time for cycle= 34      0.38 sec, wall time      0.02 sec
Linear dependence found in DIIS error vectors.
  alpha nocc = 5  HOMO = -0.631031123153733  LUMO = 0.209693698309684
  beta  nocc = 5  HOMO = -0.631031123737852  LUMO = 0.20969369826634
  alpha mo_energy =
[-26.27571497  -1.58960668  -0.73897552  -0.63103112  -0.63103112
   0.2096937    1.11681447   1.48947019   1.48947019   1.5932039
   2.00611371]
  beta  mo_energy =
[-26.27571497  -1.58960668  -0.73897552  -0.63103112  -0.63103112
   0.2096937    1.11681447   1.48947019   1.48947019   1.5932039
   2.00611371]
multiplicity <S^2> = -8.8817842e-16  2S+1 = 1
E1 = -150.62143797789378  Ecoul = 45.44435958083814
cycle= 35 E= -99.9834089332825  delta_E= -1.42e-14  |g|= 7.12e-10  |ddm|= 1.8e-10
    CPU time for cycle= 35      0.40 sec, wall time      0.02 sec
Linear dependence found in DIIS error vectors.
  alpha nocc = 5  HOMO = -0.631031123207799  LUMO = 0.209693698307801
  beta  nocc = 5  HOMO = -0.631031123711354  LUMO = 0.209693698270668
  alpha mo_energy =
[-26.27571497  -1.58960668  -0.73897552  -0.63103112  -0.63103112
   0.2096937    1.11681447   1.48947019   1.48947019   1.5932039
   2.00611371]
  beta  mo_energy =
[-26.27571497  -1.58960668  -0.73897552  -0.63103112  -0.63103112
   0.2096937    1.11681447   1.48947019   1.48947019   1.5932039
   2.00611371]
multiplicity <S^2> = -2.6645353e-15  2S+1 = 1
E1 = -150.62143797791697  Ecoul = 45.444359580861324
cycle= 36 E= -99.9834089332825  delta_E= -1.42e-14  |g|= 6.16e-10  |ddm|= 1.6e-10
    CPU time for cycle= 36      0.38 sec, wall time      0.02 sec
Linear dependence found in DIIS error vectors.
  alpha nocc = 5  HOMO = -0.631031123250347  LUMO = 0.209693698306459
  beta  nocc = 5  HOMO = -0.631031123684733  LUMO = 0.209693698274608
  alpha mo_energy =
[-26.27571497  -1.58960668  -0.73897552  -0.63103112  -0.63103112
   0.2096937    1.11681447   1.48947019   1.48947019   1.5932039
   2.00611371]
  beta  mo_energy =
[-26.27571497  -1.58960668  -0.73897552  -0.63103112  -0.63103112
   0.2096937    1.11681447   1.48947019   1.48947019   1.5932039
   2.00611371]
multiplicity <S^2> = -5.3290705e-15  2S+1 = 1
E1 = -150.6214379779155  Ecoul = 45.44435958085981
cycle= 37 E= -99.9834089332825  delta_E= -2.84e-14  |g|= 5.33e-10  |ddm|= 1.39e-10
    CPU time for cycle= 37      0.39 sec, wall time      0.02 sec
Linear dependence found in DIIS error vectors.
  alpha nocc = 5  HOMO = -0.631031123282556  LUMO = 0.209693698305383
  beta  nocc = 5  HOMO = -0.631031123659487  LUMO = 0.209693698277914
  alpha mo_energy =
[-26.27571497  -1.58960668  -0.73897552  -0.63103112  -0.63103112
   0.2096937    1.11681447   1.48947019   1.48947019   1.5932039
   2.00611371]
  beta  mo_energy =
[-26.27571497  -1.58960668  -0.73897552  -0.63103112  -0.63103112
   0.2096937    1.11681447   1.48947019   1.48947019   1.5932039
   2.00611371]
multiplicity <S^2> = -8.8817842e-16  2S+1 = 1
E1 = -150.62143797790085  Ecoul = 45.4443595808452
cycle= 38 E= -99.9834089332825  delta_E= 2.84e-14  |g|= 4.65e-10  |ddm|= 1.14e-10
    CPU time for cycle= 38      0.38 sec, wall time      0.02 sec
Linear dependence found in DIIS error vectors.
  alpha nocc = 5  HOMO = -0.631031123310483  LUMO = 0.209693698304525
  beta  nocc = 5  HOMO = -0.631031123637549  LUMO = 0.20969369828085
  alpha mo_energy =
[-26.27571497  -1.58960668  -0.73897552  -0.63103112  -0.63103112
   0.2096937    1.11681447   1.48947019   1.48947019   1.5932039
   2.00611371]
  beta  mo_energy =
[-26.27571497  -1.58960668  -0.73897552  -0.63103112  -0.63103112
   0.2096937    1.11681447   1.48947019   1.48947019   1.5932039
   2.00611371]
multiplicity <S^2> = -5.3290705e-15  2S+1 = 1
E1 = -150.6214379778882  Ecoul = 45.44435958083255
cycle= 39 E= -99.9834089332825  delta_E=    0  |g|= 4.06e-10  |ddm|= 9.97e-11
    CPU time for cycle= 39      0.38 sec, wall time      0.02 sec
Linear dependence found in DIIS error vectors.
  alpha nocc = 5  HOMO = -0.631031123334941  LUMO = 0.20969369830382
  beta  nocc = 5  HOMO = -0.631031123618334  LUMO = 0.209693698283441
  alpha mo_energy =
[-26.27571497  -1.58960668  -0.73897552  -0.63103112  -0.63103112
   0.2096937    1.11681447   1.48947019   1.48947019   1.5932039
   2.00611371]
  beta  mo_energy =
[-26.27571497  -1.58960668  -0.73897552  -0.63103112  -0.63103112
   0.2096937    1.11681447   1.48947019   1.48947019   1.5932039
   2.00611371]
multiplicity <S^2> = -5.3290705e-15  2S+1 = 1
E1 = -150.6214379778773  Ecoul = 45.4443595808216
cycle= 40 E= -99.9834089332825  delta_E= -4.26e-14  |g|= 3.54e-10  |ddm|= 8.79e-11
    CPU time for cycle= 40      0.37 sec, wall time      0.02 sec
Linear dependence found in DIIS error vectors.
  alpha nocc = 5  HOMO = -0.631031123356325  LUMO = 0.209693698303212
  beta  nocc = 5  HOMO = -0.631031123601482  LUMO = 0.209693698285714
  alpha mo_energy =
[-26.27571497  -1.58960668  -0.73897552  -0.63103112  -0.63103112
   0.2096937    1.11681447   1.48947019   1.48947019   1.5932039
   2.00611371]
  beta  mo_energy =
[-26.27571497  -1.58960668  -0.73897552  -0.63103112  -0.63103112
   0.2096937    1.11681447   1.48947019   1.48947019   1.5932039
   2.00611371]
multiplicity <S^2> = 8.8817842e-16  2S+1 = 1
E1 = -150.62143797786803  Ecoul = 45.4443595808124
cycle= 41 E= -99.9834089332824  delta_E= 7.11e-14  |g|= 3.08e-10  |ddm|= 7.76e-11
    CPU time for cycle= 41      0.52 sec, wall time      0.02 sec
Linear dependence found in DIIS error vectors.
  alpha nocc = 5  HOMO = -0.631031123374928  LUMO = 0.209693698302654
  beta  nocc = 5  HOMO = -0.631031123586691  LUMO = 0.209693698287651
  alpha mo_energy =
[-26.27571497  -1.58960668  -0.73897552  -0.63103112  -0.63103112
   0.2096937    1.11681447   1.48947019   1.48947019   1.5932039
   2.00611371]
  beta  mo_energy =
[-26.27571497  -1.58960668  -0.73897552  -0.63103112  -0.63103112
   0.2096937    1.11681447   1.48947019   1.48947019   1.5932039
   2.00611371]
multiplicity <S^2> = -8.8817842e-16  2S+1 = 1
E1 = -150.6214379778607  Ecoul = 45.444359580805084
cycle= 42 E= -99.9834089332824  delta_E= 1.42e-14  |g|= 2.68e-10  |ddm|= 6.83e-11
    CPU time for cycle= 42      0.40 sec, wall time      0.02 sec
Linear dependence found in DIIS error vectors.
  alpha nocc = 5  HOMO = -0.631031123391266  LUMO = 0.209693698302103
  beta  nocc = 5  HOMO = -0.631031123573942  LUMO = 0.209693698289272
  alpha mo_energy =
[-26.27571497  -1.58960668  -0.73897552  -0.63103112  -0.63103112
   0.2096937    1.11681447   1.48947019   1.48947019   1.5932039
   2.00611371]
  beta  mo_energy =
[-26.27571497  -1.58960668  -0.73897552  -0.63103112  -0.63103112
   0.2096937    1.11681447   1.48947019   1.48947019   1.5932039
   2.00611371]
multiplicity <S^2> = 8.8817842e-16  2S+1 = 1
E1 = -150.62143797785643  Ecoul = 45.44435958080086
cycle= 43 E= -99.9834089332824  delta_E= 4.26e-14  |g|= 2.33e-10  |ddm|= 5.97e-11
    CPU time for cycle= 43      0.39 sec, wall time      0.02 sec
Linear dependence found in DIIS error vectors.
  alpha nocc = 5  HOMO = -0.631031123405656  LUMO = 0.209693698301538
  beta  nocc = 5  HOMO = -0.631031123563272  LUMO = 0.209693698290568
  alpha mo_energy =
[-26.27571497  -1.58960668  -0.73897552  -0.63103112  -0.63103112
   0.2096937    1.11681447   1.48947019   1.48947019   1.5932039
   2.00611371]
  beta  mo_energy =
[-26.27571497  -1.58960668  -0.73897552  -0.63103112  -0.63103112
   0.2096937    1.11681447   1.48947019   1.48947019   1.5932039
   2.00611371]
multiplicity <S^2> = -6.2172489e-15  2S+1 = 1
E1 = -150.6214379778565  Ecoul = 45.44435958080082
cycle= 44 E= -99.9834089332825  delta_E= -9.95e-14  |g|= 2.03e-10  |ddm|= 5.22e-11
    CPU time for cycle= 44      0.38 sec, wall time      0.02 sec
Linear dependence found in DIIS error vectors.
  alpha nocc = 5  HOMO = -0.631031123418202  LUMO = 0.209693698300995
  beta  nocc = 5  HOMO = -0.631031123554248  LUMO = 0.209693698291616
  alpha mo_energy =
[-26.27571497  -1.58960668  -0.73897552  -0.63103112  -0.63103112
   0.2096937    1.11681447   1.48947019   1.48947019   1.5932039
   2.00611371]
  beta  mo_energy =
[-26.27571497  -1.58960668  -0.73897552  -0.63103112  -0.63103112
   0.2096937    1.11681447   1.48947019   1.48947019   1.5932039
   2.00611371]
multiplicity <S^2> = 8.8817842e-16  2S+1 = 1
E1 = -150.62143797785845  Ecoul = 45.44435958080278
cycle= 45 E= -99.9834089332825  delta_E=    0  |g|= 1.77e-10  |ddm|= 4.53e-11
    CPU time for cycle= 45      0.39 sec, wall time      0.02 sec
Linear dependence found in DIIS error vectors.
  alpha nocc = 5  HOMO = -0.631031123428977  LUMO = 0.20969369830051
  beta  nocc = 5  HOMO = -0.631031123546441  LUMO = 0.209693698292492
  alpha mo_energy =
[-26.27571497  -1.58960668  -0.73897552  -0.63103112  -0.63103112
   0.2096937    1.11681447   1.48947019   1.48947019   1.5932039
   2.00611371]
  beta  mo_energy =
[-26.27571497  -1.58960668  -0.73897552  -0.63103112  -0.63103112
   0.2096937    1.11681447   1.48947019   1.48947019   1.5932039
   2.00611371]
multiplicity <S^2> = 8.8817842e-16  2S+1 = 1
E1 = -150.62143797786064  Ecoul = 45.44435958080496
cycle= 46 E= -99.9834089332825  delta_E= -1.42e-14  |g|= 1.54e-10  |ddm|= 3.93e-11
    CPU time for cycle= 46      0.39 sec, wall time      0.02 sec
Linear dependence found in DIIS error vectors.
  alpha nocc = 5  HOMO = -0.631031123438216  LUMO = 0.209693698300104
  beta  nocc = 5  HOMO = -0.631031123539539  LUMO = 0.209693698293263
  alpha mo_energy =
[-26.27571497  -1.58960668  -0.73897552  -0.63103112  -0.63103112
   0.2096937    1.11681447   1.48947019   1.48947019   1.5932039
   2.00611371]
  beta  mo_energy =
[-26.27571497  -1.58960668  -0.73897552  -0.63103112  -0.63103112
   0.2096937    1.11681447   1.48947019   1.48947019   1.5932039
   2.00611371]
multiplicity <S^2> = -3.5527137e-15  2S+1 = 1
E1 = -150.6214379778618  Ecoul = 45.44435958080622
cycle= 47 E= -99.9834089332824  delta_E= 9.95e-14  |g|= 1.35e-10  |ddm|= 3.46e-11
    CPU time for cycle= 47      0.38 sec, wall time      0.02 sec
Linear dependence found in DIIS error vectors.
  alpha nocc = 5  HOMO = -0.631031123446128  LUMO = 0.209693698299761
  beta  nocc = 5  HOMO = -0.631031123533433  LUMO = 0.209693698293935
  alpha mo_energy =
[-26.27571497  -1.58960668  -0.73897552  -0.63103112  -0.63103112
   0.2096937    1.11681447   1.48947019   1.48947019   1.5932039
   2.00611371]
  beta  mo_energy =
[-26.27571497  -1.58960668  -0.73897552  -0.63103112  -0.63103112
   0.2096937    1.11681447   1.48947019   1.48947019   1.5932039
   2.00611371]
multiplicity <S^2> = 1.7763568e-15  2S+1 = 1
E1 = -150.62143797786234  Ecoul = 45.444359580806704
cycle= 48 E= -99.9834089332825  delta_E= -5.68e-14  |g|= 1.18e-10  |ddm|= 3.04e-11
    CPU time for cycle= 48      0.40 sec, wall time      0.02 sec
Linear dependence found in DIIS error vectors.
  alpha nocc = 5  HOMO = -0.631031123452889  LUMO = 0.209693698299468
  beta  nocc = 5  HOMO = -0.631031123528027  LUMO = 0.209693698294523
  alpha mo_energy =
[-26.27571497  -1.58960668  -0.73897552  -0.63103112  -0.63103112
   0.2096937    1.11681447   1.48947019   1.48947019   1.5932039
   2.00611371]
  beta  mo_energy =
[-26.27571497  -1.58960668  -0.73897552  -0.63103112  -0.63103112
   0.2096937    1.11681447   1.48947019   1.48947019   1.5932039
   2.00611371]
multiplicity <S^2> = -4.4408921e-15  2S+1 = 1
E1 = -150.62143797786237  Ecoul = 45.44435958080671
cycle= 49 E= -99.9834089332825  delta_E= -1.42e-14  |g|= 1.03e-10  |ddm|= 2.67e-11
    CPU time for cycle= 49      0.39 sec, wall time      0.02 sec
Linear dependence found in DIIS error vectors.
  alpha nocc = 5  HOMO = -0.631031123458643  LUMO = 0.209693698299222
  beta  nocc = 5  HOMO = -0.63103112352325  LUMO = 0.209693698295029
  alpha mo_energy =
[-26.27571497  -1.58960668  -0.73897552  -0.63103112  -0.63103112
   0.2096937    1.11681447   1.48947019   1.48947019   1.5932039
   2.00611371]
  beta  mo_energy =
[-26.27571497  -1.58960668  -0.73897552  -0.63103112  -0.63103112
   0.2096937    1.11681447   1.48947019   1.48947019   1.5932039
   2.00611371]
multiplicity <S^2> = -3.5527137e-15  2S+1 = 1
E1 = -150.62143797786183  Ecoul = 45.444359580806186
cycle= 50 E= -99.9834089332825  delta_E=    0  |g|= 8.99e-11  |ddm|= 2.35e-11
    CPU time for cycle= 50      0.39 sec, wall time      0.02 sec
  alpha nocc = 5  HOMO = -0.631031123476761  LUMO = 0.209693698298446
  beta  nocc = 5  HOMO = -0.631031123507315  LUMO = 0.209693698296648
  alpha mo_energy =
[-26.27571497  -1.58960668  -0.73897552  -0.63103112  -0.63103112
   0.2096937    1.11681447   1.48947019   1.48947019   1.5932039
   2.00611371]
  beta  mo_energy =
[-26.27571497  -1.58960668  -0.73897552  -0.63103112  -0.63103112
   0.2096937    1.11681447   1.48947019   1.48947019   1.5932039
   2.00611371]
multiplicity <S^2> = -2.6645353e-15  2S+1 = 1
E1 = -150.6214379778582  Ecoul = 45.44435958080256
Extra cycle  E= -99.9834089332824  delta_E= 2.84e-14  |g|= 4.74e-11  |ddm|= 7.9e-11
    CPU time for scf_cycle     17.90 sec, wall time      0.74 sec
    CPU time for SCF     17.91 sec, wall time      0.74 sec
converged SCF energy = -99.9834089332824  <S^2> = -2.6645353e-15  2S+1 = 1
loop example
davidson 0 1  |r|= 2.34  e= [2.32962656]  max|de|= 2.33  lindep= 0.596
davidson 1 2  |r|= 0.911  e= [1.26427133]  max|de|= -1.07  lindep= 0.802
davidson 2 3  |r|= 0.454  e= [1.04669263]  max|de|= -0.218  lindep= 0.863
davidson 3 4  |r|= 0.416  e= [0.91666859]  max|de|= -0.13  lindep= 0.913
davidson 4 5  |r|= 0.14  e= [0.89902613]  max|de|= -0.0176  lindep= 0.88
davidson 5 6  |r|= 0.0575  e= [0.89745995]  max|de|= -0.00157  lindep= 0.66
davidson 6 7  |r|= 0.688  e= [0.80567632]  max|de|= -0.0918  lindep= 0.568
davidson 7 8  |r|= 0.0588  e= [0.758816]  max|de|= -0.0469  lindep= 0.85
davidson 8 9  |r|= 0.012  e= [0.7578455]  max|de|= -0.000971  lindep= 0.952
root 0 converged  |r|= 0.00298  e= 0.7578362937802756  max|de|= -9.2e-06
converged 9 10  |r|= 0.00298  e= [0.75783629]  max|de|= -9.2e-06
<class 'pyscf.scf.uhf.UHF'> wavefunction is stable in the internal stability analysis
(11, 11)
(2, 11, 11)
mo energy: (11,)
total 2e- integral energy: 45.444359580802576
(11, 11, 11, 11)
final rhf/uhf energy: -99.98340893328246
moE: [-26.27571497  -1.58960668  -0.73897552  -0.63103112  -0.63103112
   0.2096937    1.11681447   1.48947019   1.48947019   1.5932039
   2.00611371] [-26.27571497  -1.58960668  -0.73897552  -0.63103112  -0.63103112
   0.2096937    1.11681447   1.48947019   1.48947019   1.5932039
   2.00611371]
slice(None, 5, None) slice(5, None, None)
eabij_aa: [[[[-0.01887832 -0.03535479 -0.03645102 -0.03659501 -0.03659501]
   [-0.03535479 -0.27788579 -0.36390505 -0.37878426 -0.37878426]
   [-0.03645102 -0.36390505 -0.5270541  -0.5588484  -0.5588484 ]
   [-0.03659501 -0.37878426 -0.5588484  -0.59472492 -0.59472492]
   [-0.03659501 -0.37878426 -0.5588484  -0.59472492 -0.59472492]]

  [[-0.01856047 -0.03425616 -0.03528432 -0.03541923 -0.03541923]
   [-0.03425616 -0.22194004 -0.27359105 -0.28191679 -0.28191679]
   [-0.03528432 -0.27359105 -0.35657499 -0.37084907 -0.37084907]
   [-0.03541923 -0.28191679 -0.37084907 -0.38631362 -0.38631362]
   [-0.03541923 -0.28191679 -0.37084907 -0.38631362 -0.38631362]]

  [[-0.01843298 -0.03382437 -0.03482639 -0.03495781 -0.03495781]
   [-0.03382437 -0.2049862  -0.24827782 -0.25511495 -0.25511495]
   [-0.03482639 -0.24827782 -0.31475097 -0.32582093 -0.32582093]
   [-0.03495781 -0.25511495 -0.32582093 -0.33769795 -0.33769795]
   [-0.03495781 -0.25511495 -0.32582093 -0.33769795 -0.33769795]]

  [[-0.01843298 -0.03382437 -0.03482639 -0.03495781 -0.03495781]
   [-0.03382437 -0.2049862  -0.24827782 -0.25511495 -0.25511495]
   [-0.03482639 -0.24827782 -0.31475097 -0.32582093 -0.32582093]
   [-0.03495781 -0.25511495 -0.32582093 -0.33769795 -0.33769795]
   [-0.03495781 -0.25511495 -0.32582093 -0.33769795 -0.33769795]]

  [[-0.0183978  -0.0337061  -0.03470103 -0.0348315  -0.0348315 ]
   [-0.0337061  -0.20071813 -0.24204403 -0.24853764 -0.24853764]
   [-0.03470103 -0.24204403 -0.30479919 -0.31516867 -0.31516867]
   [-0.0348315  -0.24853764 -0.31516867 -0.32626855 -0.32626855]
   [-0.0348315  -0.24853764 -0.31516867 -0.32626855 -0.32626855]]

  [[-0.01825909 -0.03324343 -0.03421084 -0.03433765 -0.03433765]
   [-0.03324343 -0.1853561  -0.22005156 -0.22540569 -0.22540569]
   [-0.03421084 -0.22005156 -0.27072696 -0.2788767  -0.2788767 ]
   [-0.03433765 -0.22540569 -0.2788767  -0.28753234 -0.28753234]
   [-0.03433765 -0.22540569 -0.2788767  -0.28753234 -0.28753234]]]


 [[[-0.01856047 -0.03425616 -0.03528432 -0.03541923 -0.03541923]
   [-0.03425616 -0.22194004 -0.27359105 -0.28191679 -0.28191679]
   [-0.03528432 -0.27359105 -0.35657499 -0.37084907 -0.37084907]
   [-0.03541923 -0.28191679 -0.37084907 -0.38631362 -0.38631362]
   [-0.03541923 -0.28191679 -0.37084907 -0.38631362 -0.38631362]]

  [[-0.01825315 -0.03322375 -0.03419    -0.03431665 -0.03431665]
   [-0.03322375 -0.18474582 -0.21919196 -0.22450384 -0.22450384]
   [-0.03419    -0.21919196 -0.26942704 -0.27749754 -0.27749754]
   [-0.03431665 -0.22450384 -0.27749754 -0.28606646 -0.28606646]
   [-0.03431665 -0.22450384 -0.27749754 -0.28606646 -0.28606646]]

  [[-0.01812983 -0.03281744 -0.03375986 -0.03388334 -0.03388334]
   [-0.03281744 -0.17284597 -0.20263971 -0.20717134 -0.20717134]
   [-0.03375986 -0.20263971 -0.24484385 -0.25149063 -0.25149063]
   [-0.03388334 -0.20717134 -0.25149063 -0.25850836 -0.25850836]
   [-0.03388334 -0.20717134 -0.25149063 -0.25850836 -0.25850836]]

  [[-0.01812983 -0.03281744 -0.03375986 -0.03388334 -0.03388334]
   [-0.03281744 -0.17284597 -0.20263971 -0.20717134 -0.20717134]
   [-0.03375986 -0.20263971 -0.24484385 -0.25149063 -0.25149063]
   [-0.03388334 -0.20717134 -0.25149063 -0.25850836 -0.25850836]
   [-0.03388334 -0.20717134 -0.25149063 -0.25850836 -0.25850836]]

  [[-0.0180958  -0.0327061  -0.03364205 -0.03376466 -0.03376466]
   [-0.0327061  -0.16980144 -0.19846781 -0.20281276 -0.20281276]
   [-0.03364205 -0.19846781 -0.2387792  -0.24509654 -0.24509654]
   [-0.03376466 -0.20281276 -0.24509654 -0.25175723 -0.25175723]
   [-0.03376466 -0.20281276 -0.24509654 -0.25175723 -0.25175723]]

  [[-0.01796159 -0.0322703  -0.03318112 -0.03330039 -0.03330039]
   [-0.0322703  -0.15867622 -0.1834354  -0.18714095 -0.18714095]
   [-0.03318112 -0.1834354  -0.21734976 -0.22257167 -0.22257167]
   [-0.03330039 -0.18714095 -0.22257167 -0.22805067 -0.22805067]
   [-0.03330039 -0.18714095 -0.22257167 -0.22805067 -0.22805067]]]


 [[[-0.01843298 -0.03382437 -0.03482639 -0.03495781 -0.03495781]
   [-0.03382437 -0.2049862  -0.24827782 -0.25511495 -0.25511495]
   [-0.03482639 -0.24827782 -0.31475097 -0.32582093 -0.32582093]
   [-0.03495781 -0.25511495 -0.32582093 -0.33769795 -0.33769795]
   [-0.03495781 -0.25511495 -0.32582093 -0.33769795 -0.33769795]]

  [[-0.01812983 -0.03281744 -0.03375986 -0.03388334 -0.03388334]
   [-0.03281744 -0.17284597 -0.20263971 -0.20717134 -0.20717134]
   [-0.03375986 -0.20263971 -0.24484385 -0.25149063 -0.25149063]
   [-0.03388334 -0.20717134 -0.25149063 -0.25850836 -0.25850836]
   [-0.03388334 -0.20717134 -0.25149063 -0.25850836 -0.25850836]]

  [[-0.01800816 -0.03242094 -0.03334041 -0.03346083 -0.03346083]
   [-0.03242094 -0.16238633 -0.18841182 -0.19232329 -0.19232329]
   [-0.03334041 -0.18841182 -0.22437163 -0.22994072 -0.22994072]
   [-0.03346083 -0.19232329 -0.22994072 -0.2357933  -0.2357933 ]
   [-0.03346083 -0.19232329 -0.22994072 -0.2357933  -0.2357933 ]]

  [[-0.01800816 -0.03242094 -0.03334041 -0.03346083 -0.03346083]
   [-0.03242094 -0.16238633 -0.18841182 -0.19232329 -0.19232329]
   [-0.03334041 -0.18841182 -0.22437163 -0.22994072 -0.22994072]
   [-0.03346083 -0.19232329 -0.22994072 -0.2357933  -0.2357933 ]
   [-0.03346083 -0.19232329 -0.22994072 -0.2357933  -0.2357933 ]]

  [[-0.01797459 -0.03231227 -0.0332255  -0.03334509 -0.03334509]
   [-0.03231227 -0.15969626 -0.18479997 -0.18856142 -0.18856142]
   [-0.0332255  -0.18479997 -0.21926819 -0.22458381 -0.22458381]
   [-0.03334509 -0.18856142 -0.22458381 -0.23016356 -0.23016356]
   [-0.03334509 -0.18856142 -0.22458381 -0.23016356 -0.23016356]]

  [[-0.01784216 -0.03188683 -0.03277584 -0.03289222 -0.03289222]
   [-0.03188683 -0.14981728 -0.1716984  -0.17494073 -0.17494073]
   [-0.03277584 -0.1716984  -0.20106424 -0.2055249  -0.2055249 ]
   [-0.03289222 -0.17494073 -0.2055249  -0.21018797 -0.21018797]
   [-0.03289222 -0.17494073 -0.2055249  -0.21018797 -0.21018797]]]


 [[[-0.01843298 -0.03382437 -0.03482639 -0.03495781 -0.03495781]
   [-0.03382437 -0.2049862  -0.24827782 -0.25511495 -0.25511495]
   [-0.03482639 -0.24827782 -0.31475097 -0.32582093 -0.32582093]
   [-0.03495781 -0.25511495 -0.32582093 -0.33769795 -0.33769795]
   [-0.03495781 -0.25511495 -0.32582093 -0.33769795 -0.33769795]]

  [[-0.01812983 -0.03281744 -0.03375986 -0.03388334 -0.03388334]
   [-0.03281744 -0.17284597 -0.20263971 -0.20717134 -0.20717134]
   [-0.03375986 -0.20263971 -0.24484385 -0.25149063 -0.25149063]
   [-0.03388334 -0.20717134 -0.25149063 -0.25850836 -0.25850836]
   [-0.03388334 -0.20717134 -0.25149063 -0.25850836 -0.25850836]]

  [[-0.01800816 -0.03242094 -0.03334041 -0.03346083 -0.03346083]
   [-0.03242094 -0.16238633 -0.18841182 -0.19232329 -0.19232329]
   [-0.03334041 -0.18841182 -0.22437163 -0.22994072 -0.22994072]
   [-0.03346083 -0.19232329 -0.22994072 -0.2357933  -0.2357933 ]
   [-0.03346083 -0.19232329 -0.22994072 -0.2357933  -0.2357933 ]]

  [[-0.01800816 -0.03242094 -0.03334041 -0.03346083 -0.03346083]
   [-0.03242094 -0.16238633 -0.18841182 -0.19232329 -0.19232329]
   [-0.03334041 -0.18841182 -0.22437163 -0.22994072 -0.22994072]
   [-0.03346083 -0.19232329 -0.22994072 -0.2357933  -0.2357933 ]
   [-0.03346083 -0.19232329 -0.22994072 -0.2357933  -0.2357933 ]]

  [[-0.01797459 -0.03231227 -0.0332255  -0.03334509 -0.03334509]
   [-0.03231227 -0.15969626 -0.18479997 -0.18856142 -0.18856142]
   [-0.0332255  -0.18479997 -0.21926819 -0.22458381 -0.22458381]
   [-0.03334509 -0.18856142 -0.22458381 -0.23016356 -0.23016356]
   [-0.03334509 -0.18856142 -0.22458381 -0.23016356 -0.23016356]]

  [[-0.01784216 -0.03188683 -0.03277584 -0.03289222 -0.03289222]
   [-0.03188683 -0.14981728 -0.1716984  -0.17494073 -0.17494073]
   [-0.03277584 -0.1716984  -0.20106424 -0.2055249  -0.2055249 ]
   [-0.03289222 -0.17494073 -0.2055249  -0.21018797 -0.21018797]
   [-0.03289222 -0.17494073 -0.2055249  -0.21018797 -0.21018797]]]


 [[[-0.0183978  -0.0337061  -0.03470103 -0.0348315  -0.0348315 ]
   [-0.0337061  -0.20071813 -0.24204403 -0.24853764 -0.24853764]
   [-0.03470103 -0.24204403 -0.30479919 -0.31516867 -0.31516867]
   [-0.0348315  -0.24853764 -0.31516867 -0.32626855 -0.32626855]
   [-0.0348315  -0.24853764 -0.31516867 -0.32626855 -0.32626855]]

  [[-0.0180958  -0.0327061  -0.03364205 -0.03376466 -0.03376466]
   [-0.0327061  -0.16980144 -0.19846781 -0.20281276 -0.20281276]
   [-0.03364205 -0.19846781 -0.2387792  -0.24509654 -0.24509654]
   [-0.03376466 -0.20281276 -0.24509654 -0.25175723 -0.25175723]
   [-0.03376466 -0.20281276 -0.24509654 -0.25175723 -0.25175723]]

  [[-0.01797459 -0.03231227 -0.0332255  -0.03334509 -0.03334509]
   [-0.03231227 -0.15969626 -0.18479997 -0.18856142 -0.18856142]
   [-0.0332255  -0.18479997 -0.21926819 -0.22458381 -0.22458381]
   [-0.03334509 -0.18856142 -0.22458381 -0.23016356 -0.23016356]
   [-0.03334509 -0.18856142 -0.22458381 -0.23016356 -0.23016356]]

  [[-0.01797459 -0.03231227 -0.0332255  -0.03334509 -0.03334509]
   [-0.03231227 -0.15969626 -0.18479997 -0.18856142 -0.18856142]
   [-0.0332255  -0.18479997 -0.21926819 -0.22458381 -0.22458381]
   [-0.03334509 -0.18856142 -0.22458381 -0.23016356 -0.23016356]
   [-0.03334509 -0.18856142 -0.22458381 -0.23016356 -0.23016356]]

  [[-0.01794113 -0.03220433 -0.03311138 -0.03323015 -0.03323015]
   [-0.03220433 -0.15709386 -0.18132399 -0.18494388 -0.18494388]
   [-0.03311138 -0.18132399 -0.21439174 -0.21947082 -0.21947082]
   [-0.03323015 -0.18494388 -0.21947082 -0.22479639 -0.22479639]
   [-0.03323015 -0.18494388 -0.21947082 -0.22479639 -0.22479639]]

  [[-0.0178092  -0.03178171 -0.03266479 -0.03278037 -0.03278037]
   [-0.03178171 -0.14752459 -0.16869381 -0.17182262 -0.17182262]
   [-0.03266479 -0.16869381 -0.19695629 -0.2012346  -0.2012346 ]
   [-0.03278037 -0.17182262 -0.2012346  -0.20570291 -0.20570291]
   [-0.03278037 -0.17182262 -0.2012346  -0.20570291 -0.20570291]]]


 [[[-0.01825909 -0.03324343 -0.03421084 -0.03433765 -0.03433765]
   [-0.03324343 -0.1853561  -0.22005156 -0.22540569 -0.22540569]
   [-0.03421084 -0.22005156 -0.27072696 -0.2788767  -0.2788767 ]
   [-0.03433765 -0.22540569 -0.2788767  -0.28753234 -0.28753234]
   [-0.03433765 -0.22540569 -0.2788767  -0.28753234 -0.28753234]]

  [[-0.01796159 -0.0322703  -0.03318112 -0.03330039 -0.03330039]
   [-0.0322703  -0.15867622 -0.1834354  -0.18714095 -0.18714095]
   [-0.03318112 -0.1834354  -0.21734976 -0.22257167 -0.22257167]
   [-0.03330039 -0.18714095 -0.22257167 -0.22805067 -0.22805067]
   [-0.03330039 -0.18714095 -0.22257167 -0.22805067 -0.22805067]]

  [[-0.01784216 -0.03188683 -0.03277584 -0.03289222 -0.03289222]
   [-0.03188683 -0.14981728 -0.1716984  -0.17494073 -0.17494073]
   [-0.03277584 -0.1716984  -0.20106424 -0.2055249  -0.2055249 ]
   [-0.03289222 -0.17494073 -0.2055249  -0.21018797 -0.21018797]
   [-0.03289222 -0.17494073 -0.2055249  -0.21018797 -0.21018797]]

  [[-0.01784216 -0.03188683 -0.03277584 -0.03289222 -0.03289222]
   [-0.03188683 -0.14981728 -0.1716984  -0.17494073 -0.17494073]
   [-0.03277584 -0.1716984  -0.20106424 -0.2055249  -0.2055249 ]
   [-0.03289222 -0.17494073 -0.2055249  -0.21018797 -0.21018797]
   [-0.03289222 -0.17494073 -0.2055249  -0.21018797 -0.21018797]]

  [[-0.0178092  -0.03178171 -0.03266479 -0.03278037 -0.03278037]
   [-0.03178171 -0.14752459 -0.16869381 -0.17182262 -0.17182262]
   [-0.03266479 -0.16869381 -0.19695629 -0.2012346  -0.2012346 ]
   [-0.03278037 -0.17182262 -0.2012346  -0.20570291 -0.20570291]
   [-0.03278037 -0.17182262 -0.2012346  -0.20570291 -0.20570291]]

  [[-0.0176792  -0.03137004 -0.03223008 -0.0323426  -0.0323426 ]
   [-0.03137004 -0.13905419 -0.15770857 -0.16043986 -0.16043986]
   [-0.03223008 -0.15770857 -0.18214344 -0.18579645 -0.18579645]
   [-0.0323426  -0.16043986 -0.18579645 -0.18959899 -0.18959899]
   [-0.0323426  -0.16043986 -0.18579645 -0.18959899 -0.18959899]]]] (6, 6, 5, 5)
hf energy: -99.98340893328245
nuclear repulsion: 5.193669463773174
(11, 11, 11, 11)
mp2aaaa/bbbbE: 0.0 0.0 0.0
initial energy: -105.17707839705565
    ==> CCSDT amplitude equations <==

     Iter              Corr. Energy                 |dE|    |dT|

there zww hi
still here
hi
mp2aaaa/bbbbE: -0.0163627332927448 -0.016362733292423805 -0.09596875299943337
        0      -0.128694219585       0.128694219585 

there zww hi
still here
hi
mp2aaaa/bbbbE: -0.014244510260830043 -0.014244510260497242 -0.10026315253183488
        1      -0.128752173053       0.000057953469 

there zww hi
still here
hi
mp2aaaa/bbbbE: -0.013781844840839894 -0.013781844840502528 -0.10278045268056986
        2      -0.130344142362       0.001591969309 

there zww hi
still here
hi
mp2aaaa/bbbbE: -0.01359544189339366 -0.013595441893054817 -0.10363739006667297
        3      -0.130828273853       0.000484131491 

there zww hi
still here
hi
mp2aaaa/bbbbE: -0.013523378118800364 -0.013523378118460948 -0.10395453088251774
        4      -0.131001287120       0.000173013267 

there zww hi
still here
hi
mp2aaaa/bbbbE: -0.013476710460163651 -0.013476710459823855 -0.10415257086188962
        5      -0.131105991782       0.000104704662 

there zww hi
still here
hi
mp2aaaa/bbbbE: -0.013476707767487953 -0.013476707767148181 -0.10414995062876542
        6      -0.131103366163       0.000002625619 

there zww hi
still here
hi
mp2aaaa/bbbbE: -0.01347672516270926 -0.013476725162369483 -0.10414990156451469
        7      -0.131103351890       0.000000014274 

there zww hi
still here
hi
mp2aaaa/bbbbE: -0.013476731034682134 -0.013476731034342354 -0.10414992204165521
        8      -0.131103384111       0.000000032221 

there zww hi
still here
hi
mp2aaaa/bbbbE: -0.01347673155030874 -0.013476731549968939 -0.10414992011434245
        9      -0.131103383215       0.000000000896 

there zww hi
still here
hi
mp2aaaa/bbbbE: -0.013476731512430715 -0.01347673151209094 -0.10414992016985555
       10      -0.131103383194       0.000000000020 

there zww hi
still here
hi
mp2aaaa/bbbbE: -0.013476731527646805 -0.013476731527307039 -0.10414992014558162
       11      -0.131103383201       0.000000000006 

there zww hi
still here
hi
mp2aaaa/bbbbE: -0.013476731525237264 -0.013476731524897482 -0.10414992015256035
       12      -0.131103383203       0.000000000002 

there zww hi
still here
hi
mp2aaaa/bbbbE: -0.01347673152507011 -0.013476731524730338 -0.10414992015240121
       13      -0.131103383202       0.000000000000 








Final, total correlated energy: -100.11451231648468
Final CCD correlation contribution: -0.13110338320223036
