#INFO: **** input file is /blue/bartlett/z.windom/MOLSSI_develop/test/build_T2_interfaces/RECORDS/verify_spin_CCD/pyscfCode/N2_equil_UHF/run_pyscf.py ****
import numpy as np
import pyscf
from pyscf import ao2mo


def main():
    """ Initialize calculation details, 2e- integrals, Fock matrix, etc """

    # run pyscf for some reason
    basis = 'ccpvdz'
    mol = pyscf.M(
        atom='N 0 0 0; N 0 0 {}'.format(2.0749193),
        #atom='Be 0 0 0'
        verbose=5,
        unit='b',
        basis=basis)



    mf = mol.UHF()
    mf.run()
    orb=mf.mo_coeff
    print(np.shape(mf.get_hcore()))
    print(np.shape(orb))
    import run_ccd as run_ccd 
 
    run_ccd.ccd_main(mf,mol,orb)


main()
#INFO: ******************** input file end ********************


System: uname_result(system='Linux', node='login2.ufhpc', release='3.10.0-1160.80.1.el7.x86_64', version='#1 SMP Sat Oct 8 18:13:21 UTC 2022', machine='x86_64', processor='x86_64')  Threads 32
Python 3.7.12 | packaged by conda-forge | (default, Oct 26 2021, 06:08:21) 
[GCC 9.4.0]
numpy 1.21.6  scipy 1.7.3
Date: Fri Jan 27 23:17:01 2023
PySCF version 2.1.1
PySCF path  /blue/bartlett/z.windom/MOLSSI_develop/T2method/new/pyscf
GIT ORIG_HEAD 41535e74b1de6eb21fc9b6a13c089d6cd55b35d7
GIT HEAD (branch master) ff882f83f5730ea5610d52cc5b88d278f9b71da7

[ENV] PYSCF_INC_DIR /home/z.windom/libxc-4.3.4
[CONFIG] conf_file /home/z.windom/.pyscf_conf.py
[INPUT] verbose = 5
[INPUT] max_memory = 4000 
[INPUT] num. atoms = 2
[INPUT] num. electrons = 14
[INPUT] charge = 0
[INPUT] spin (= nelec alpha-beta = 2S) = 0
[INPUT] symmetry False subgroup None
[INPUT] Mole.unit = b
[INPUT] Symbol           X                Y                Z      unit          X                Y                Z       unit  Magmom
[INPUT]  1 N      0.000000000000   0.000000000000   0.000000000000 AA    0.000000000000   0.000000000000   0.000000000000 Bohr   0.0
[INPUT]  2 N      0.000000000000   0.000000000000   1.098000008058 AA    0.000000000000   0.000000000000   2.074919300000 Bohr   0.0
[INPUT] ---------------- BASIS SET ---------------- 
[INPUT] l, kappa, [nprim/nctr], expnt,             c_1 c_2 ...
[INPUT] N
[INPUT] 0    0    [8    /2   ]  9046              0.0007 -0.000153
                                1357              0.005389 -0.001208
                                309.3             0.027406 -0.005992
                                87.73             0.103207 -0.024544
                                28.56             0.278723 -0.067459
                                10.21             0.44854 -0.158078
                                3.838             0.278238 -0.121831
                                0.7466            0.01544 0.549003
[INPUT] 0    0    [1    /1   ]  0.2248               1
[INPUT] 1    0    [3    /1   ]  13.55             0.039919
                                2.917             0.217169
                                0.7973            0.510319
[INPUT] 1    0    [1    /1   ]  0.2185               1
[INPUT] 2    0    [1    /1   ]  0.817                1

nuclear repulsion = 23.6153762702964
number of shells = 10
number of NR pGTOs = 52
number of NR cGTOs = 28
basis = ccpvdz
ecp = {}
CPU time:         2.32


******** <class 'pyscf.scf.uhf.UHF'> ********
method = UHF
initial guess = minao
damping factor = 0
level_shift factor = 0
DIIS = <class 'pyscf.scf.diis.CDIIS'>
diis_start_cycle = 1
diis_space = 8
SCF conv_tol = 1e-09
SCF conv_tol_grad = None
SCF max_cycles = 50
direct_scf = True
direct_scf_tol = 1e-13
chkfile to save SCF result = /blue/bartlett/z.windom/MOLSSI_develop/test/build_T2_interfaces/RECORDS/verify_spin_CCD/pyscfCode/N2_equil_UHF/tmp7idis1h5
max_memory 4000 MB (current use 85 MB)
number electrons alpha = 7  beta = 7
Set gradient conv threshold to 3.16228e-05
E1 = -195.52041600790486  Ecoul = 62.78923057714261
init E= -109.115809160466
cond(S) = 504.82631920102904
    CPU time for initialize scf      1.06 sec, wall time      0.06 sec
  alpha nocc = 7  HOMO = -0.34257551964284  LUMO = 0.107198137204789
  beta  nocc = 7  HOMO = -0.344430127478289  LUMO = 0.106480911210456
  alpha mo_energy =
[-15.57581518 -15.56980406  -1.61819304  -0.63672365  -0.43312432
  -0.43312432  -0.34257552   0.10719814   0.10719814   0.59438497
   0.87893462   0.93532958   0.93532958   1.04155707   1.07563946
   1.07563946   1.17614891   1.67528987   1.83551818   1.83551818
   1.93727067   1.93727067   2.35347505   2.35347505   2.92050714
   3.03694472   3.03694472   3.32893853]
  beta  mo_energy =
[-15.57591114 -15.56877454  -1.6827957   -0.63290914  -0.43926399
  -0.43926399  -0.34443013   0.10648091   0.10648091   0.592624
   0.87492583   0.93321229   0.93321229   1.04050024   1.0751022
   1.0751022    1.17138714   1.67238971   1.83256641   1.83256641
   1.93199273   1.93199273   2.35256168   2.35256168   2.9175295
   3.03554211   3.03554211   3.32567617]
multiplicity <S^2> = 5.2905024e-05  2S+1 = 1.0001058
E1 = -193.1946567110329  Ecoul = 60.651886291303725
cycle= 1 E= -108.927394149433  delta_E= 0.188  |g|= 0.238  |ddm|= 1.24
    CPU time for cycle= 1      0.23 sec, wall time      0.01 sec
  alpha nocc = 7  HOMO = -0.661204182067797  LUMO = 0.129788020747987
  beta  nocc = 7  HOMO = -0.661536725255697  LUMO = 0.12993496662705
  alpha mo_energy =
[-15.80714142 -15.80387813  -1.54976564  -0.81345611  -0.66274334
  -0.66120418  -0.66120418   0.12978802   0.12978802   0.57382254
   0.79260775   0.83541824   0.83541824   0.96176441   1.0114334
   1.0114334    1.08957103   1.60187484   1.70813404   1.70813404
   1.82819418   1.82819418   2.25396126   2.25396126   2.82371876
   2.95127398   2.95127398   3.22067993]
  beta  mo_energy =
[-15.80712591 -15.80386267  -1.55169304  -0.81255544  -0.66231597
  -0.66231597  -0.66153673   0.12993497   0.12993497   0.57365133
   0.79250342   0.83508147   0.83508147   0.96228663   1.01129236
   1.01129236   1.09019954   1.60160472   1.70784763   1.70784763
   1.82803528   1.82803528   2.25396374   2.25396374   2.82380701
   2.95145455   2.95145455   3.22077167]
multiplicity <S^2> = 6.1463164e-06  2S+1 = 1.0000123
E1 = -194.47643789590012  Ecoul = 61.90853609049427
cycle= 2 E= -108.952525535109  delta_E= -0.0251  |g|= 0.0553  |ddm|=  0.2
    CPU time for cycle= 2      0.21 sec, wall time      0.01 sec
  alpha nocc = 7  HOMO = -0.604190092093001  LUMO = 0.178254270400201
  beta  nocc = 7  HOMO = -0.604635194838659  LUMO = 0.178275684826727
  alpha mo_energy =
[-15.67624767 -15.67284328  -1.46493143  -0.77151153  -0.61927054
  -0.60419009  -0.60419009   0.17825427   0.17825427   0.59471798
   0.82350504   0.87481739   0.87481739   0.99500257   1.05385239
   1.05385239   1.14975092   1.64525305   1.76196615   1.76196615
   1.88602415   1.88602415   2.30283688   2.30283688   2.8779486
   2.99975853   2.99975853   3.2884716 ]
  beta  mo_energy =
[-15.67627321 -15.67286638  -1.46571701  -0.77110326  -0.61868732
  -0.60463519  -0.60463519   0.17827568   0.17827568   0.59461595
   0.82346481   0.8746149    0.8746149    0.99526414   1.0537551
   1.0537551    1.15009467   1.64507433   1.7618423    1.7618423
   1.88597608   1.88597608   2.30281163   2.30281163   2.87798945
   2.99983098   2.99983098   3.28851752]
multiplicity <S^2> = 1.2802346e-06  2S+1 = 1.0000026
E1 = -194.2098636471452  Ecoul = 61.64047157018241
cycle= 3 E= -108.954015806666  delta_E= -0.00149  |g|= 0.00993  |ddm|= 0.044
    CPU time for cycle= 3      0.22 sec, wall time      0.01 sec
  alpha nocc = 7  HOMO = -0.608593347237539  LUMO = 0.174955942919636
  beta  nocc = 7  HOMO = -0.608667815227932  LUMO = 0.174920324656855
  alpha mo_energy =
[-15.68814129 -15.68474571  -1.47168111  -0.77481407  -0.62676054
  -0.60859335  -0.60859335   0.17495594   0.17495594   0.59427738
   0.82002951   0.87193576   0.87193576   0.99180938   1.05047898
   1.05047898   1.14326446   1.64248953   1.75702456   1.75702456
   1.8811197    1.8811197    2.29827114   2.29827114   2.87352724
   2.99552409   2.99552409   3.28239742]
  beta  mo_energy =
[-15.68816024 -15.6847633   -1.47179307  -0.77475207  -0.62662915
  -0.60866782  -0.60866782   0.17492032   0.17492032   0.59424393
   0.82002607   0.87188736   0.87188736   0.99187319   1.0504432
   1.0504432    1.14335653   1.6424427    1.75700381   1.75700381
   1.8811302    1.8811302    2.29824938   2.29824938   2.87353963
   2.99553609   2.99553609   3.28241289]
multiplicity <S^2> = 5.4884526e-08  2S+1 = 1.0000001
E1 = -194.22649865556616  Ecoul = 61.65703614534204
cycle= 4 E= -108.954086239928  delta_E= -7.04e-05  |g|= 0.000764  |ddm|= 0.0139
    CPU time for cycle= 4      0.23 sec, wall time      0.01 sec
  alpha nocc = 7  HOMO = -0.608031207040193  LUMO = 0.175489251164746
  beta  nocc = 7  HOMO = -0.608056940145257  LUMO = 0.175474550050403
  alpha mo_energy =
[-15.6865199  -15.68312301  -1.47097076  -0.77419397  -0.62619
  -0.60803121  -0.60803121   0.17548925   0.17548925   0.59455137
   0.82020984   0.87229047   0.87229047   0.99220433   1.05096721
   1.05096721   1.14391353   1.64289996   1.75748458   1.75748458
   1.88172289   1.88172289   2.29875998   2.29875998   2.87413282
   2.99611562   2.99611562   3.28313389]
  beta  mo_energy =
[-15.68652505 -15.68312785  -1.47100963  -0.77417057  -0.62614395
  -0.60805694  -0.60805694   0.17547455   0.17547455   0.59453942
   0.8202091    0.87227426   0.87227426   0.99222754   1.05095418
   1.05095418   1.14394621   1.64288348   1.75747797   1.75747797
   1.88172832   1.88172832   2.29875187   2.29875187   2.87413717
   2.99611995   2.99611995   3.28313873]
multiplicity <S^2> = 6.7603079e-09  2S+1 = 1
E1 = -194.2246969190192  Ecoul = 61.65523405639437
cycle= 5 E= -108.954086592328  delta_E= -3.52e-07  |g|= 0.000122  |ddm|= 0.000856
    CPU time for cycle= 5      0.35 sec, wall time      0.01 sec
  alpha nocc = 7  HOMO = -0.608025792930699  LUMO = 0.175486417450265
  beta  nocc = 7  HOMO = -0.608031621484713  LUMO = 0.175482863961626
  alpha mo_energy =
[-15.68654306 -15.68314671  -1.47097034  -0.77420529  -0.62620801
  -0.60802579  -0.60802579   0.17548642   0.17548642   0.59453479
   0.82020093   0.87230235   0.87230235   0.99220098   1.05096641
   1.05096641   1.14391024   1.64289846   1.75749226   1.75749226
   1.88172326   1.88172326   2.29876427   2.29876427   2.87412847
   2.99611216   2.99611216   3.28311839]
  beta  mo_energy =
[-15.68654391 -15.68314751  -1.47098018  -0.77419879  -0.62619622
  -0.60803162  -0.60803162   0.17548286   0.17548286   0.59453182
   0.82020054   0.87229854   0.87229854   0.99220713   1.0509634
   1.0509634    1.14391914   1.64289454   1.75749078   1.75749078
   1.88172455   1.88172455   2.29876237   2.29876237   2.87412953
   2.99611334   2.99611334   3.28311957]
multiplicity <S^2> = 4.2083137e-10  2S+1 = 1
E1 = -194.22475071250696  Ecoul = 61.65528783777071
cycle= 6 E= -108.95408660444  delta_E= -1.21e-08  |g|= 1.85e-05  |ddm|= 0.000178
    CPU time for cycle= 6      0.43 sec, wall time      0.01 sec
  alpha nocc = 7  HOMO = -0.608022095530947  LUMO = 0.175489294693252
  beta  nocc = 7  HOMO = -0.608022839941411  LUMO = 0.175488844630021
  alpha mo_energy =
[-15.68653212 -15.68313564  -1.47097031  -0.77420103  -0.62620056
  -0.6080221   -0.6080221    0.17548929   0.17548929   0.59453423
   0.82020361   0.87230626   0.87230626   0.99220576   1.05096991
   1.05096991   1.14391844   1.64289989   1.75749681   1.75749681
   1.88172916   1.88172916   2.29876853   2.29876853   2.87413366
   2.99611736   2.99611736   3.28312377]
  beta  mo_energy =
[-15.68653219 -15.6831357   -1.47097177  -0.77419975  -0.62619851
  -0.60802284  -0.60802284   0.17548884   0.17548884   0.59453375
   0.82020346   0.87230575   0.87230575   0.99220685   1.05096956
   1.05096956   1.14392003   1.64289932   1.7574966    1.7574966
   1.8817294    1.8817294    2.29876828   2.29876828   2.87413389
   2.99611759   2.99611759   3.28312399]
multiplicity <S^2> = 1.0521362e-11  2S+1 = 1
E1 = -194.22473826026447  Ecoul = 61.655275385228606
cycle= 7 E= -108.954086604739  delta_E= -3e-10  |g|= 2.95e-06  |ddm|= 5.53e-05
    CPU time for cycle= 7      0.51 sec, wall time      0.02 sec
  alpha nocc = 7  HOMO = -0.608023386680141  LUMO = 0.175488137098205
  beta  nocc = 7  HOMO = -0.608023685059196  LUMO = 0.175487956671945
  alpha mo_energy =
[-15.68653472 -15.68313824  -1.47097219  -0.77420142  -0.62620055
  -0.60802339  -0.60802339   0.17548814   0.17548814   0.59453369
   0.82020281   0.87230508   0.87230508   0.9922053    1.05096883
   1.05096883   1.14391769   1.64289878   1.7574956    1.7574956
   1.88172802   1.88172802   2.29876732   2.29876732   2.87413259
   2.99611634   2.99611634   3.28312256]
  beta  mo_energy =
[-15.68653472 -15.68313825  -1.47097277  -0.77420083  -0.62619965
  -0.60802369  -0.60802369   0.17548796   0.17548796   0.59453348
   0.82020275   0.87230488   0.87230488   0.99220578   1.05096869
   1.05096869   1.14391838   1.64289855   1.75749551   1.75749551
   1.88172814   1.88172814   2.29876722   2.29876722   2.8741327
   2.99611644   2.99611644   3.28312266]
multiplicity <S^2> = 1.9007018e-12  2S+1 = 1
E1 = -194.22474271462607  Ecoul = 61.65527983958394
Extra cycle  E= -108.954086604746  delta_E= -6.25e-12  |g|= 1.12e-06  |ddm|= 3.57e-06
    CPU time for scf_cycle      3.85 sec, wall time      0.15 sec
    CPU time for SCF      3.85 sec, wall time      0.15 sec
converged SCF energy = -108.954086604746  <S^2> = 1.9007018e-12  2S+1 = 1
(28, 28)
(2, 28, 28)
mo energy: (28,)
total 2e- integral energy: 61.65527983958436
(28, 28, 28, 28)
final rhf/uhf energy: -108.95408660474573
slice(None, 7, None) slice(7, None, None)
eabij_aa: [[[[-0.03152183 -0.03152521 -0.05711517 ... -0.06001064 -0.06007617
    -0.06007617]
   [-0.03152521 -0.03152858 -0.05712625 ... -0.06002287 -0.06008843
    -0.06008843]
   [-0.05711517 -0.05712625 -0.30368178 ... -0.40847187 -0.4115274
    -0.4115274 ]
   ...
   [-0.06001064 -0.06002287 -0.40847187 ... -0.62368349 -0.63083514
    -0.63083514]
   [-0.06007617 -0.06008843 -0.4115274  ... -0.63083514 -0.63815271
    -0.63815271]
   [-0.06007617 -0.06008843 -0.4115274  ... -0.63083514 -0.63815271
    -0.63815271]]

  [[-0.03152183 -0.03152521 -0.05711517 ... -0.06001064 -0.06007617
    -0.06007617]
   [-0.03152521 -0.03152858 -0.05712625 ... -0.06002287 -0.06008843
    -0.06008843]
   [-0.05711517 -0.05712625 -0.30368178 ... -0.40847187 -0.4115274
    -0.4115274 ]
   ...
   [-0.06001064 -0.06002287 -0.40847187 ... -0.62368349 -0.63083514
    -0.63083514]
   [-0.06007617 -0.06008843 -0.4115274  ... -0.63083514 -0.63815271
    -0.63815271]
   [-0.06007617 -0.06008843 -0.4115274  ... -0.63083514 -0.63815271
    -0.63815271]]

  [[-0.03111088 -0.03111417 -0.05578014 ... -0.05853856 -0.05860092
    -0.05860092]
   [-0.03111417 -0.03111746 -0.05579071 ... -0.0585502  -0.05861258
    -0.05861258]
   [-0.05578014 -0.05579071 -0.269399   ... -0.34877298 -0.35099821
    -0.35099821]
   ...
   [-0.05853856 -0.0585502  -0.34877298 ... -0.49445642 -0.49894081
    -0.49894081]
   [-0.05860092 -0.05861258 -0.35099821 ... -0.49894081 -0.50350728
    -0.50350728]
   [-0.05860092 -0.05861258 -0.35099821 ... -0.49894081 -0.50350728
    -0.50350728]]

  ...

  [[-0.02894802 -0.02895087 -0.04919054 ... -0.05132327 -0.05137119
    -0.05137119]
   [-0.02895087 -0.02895372 -0.04919876 ... -0.05133222 -0.05138016
    -0.05138016]
   [-0.04919054 -0.04919876 -0.16357111 ... -0.18979736 -0.19045442
    -0.19045442]
   ...
   [-0.05132327 -0.05133222 -0.18979736 ... -0.2260395  -0.22697207
    -0.22697207]
   [-0.05137119 -0.05138016 -0.19045442 ... -0.22697207 -0.22791237
    -0.22791237]
   [-0.05137119 -0.05138016 -0.19045442 ... -0.22697207 -0.22791237
    -0.22791237]]

  [[-0.02894802 -0.02895087 -0.04919054 ... -0.05132327 -0.05137119
    -0.05137119]
   [-0.02895087 -0.02895372 -0.04919876 ... -0.05133222 -0.05138016
    -0.05138016]
   [-0.04919054 -0.04919876 -0.16357111 ... -0.18979736 -0.19045442
    -0.19045442]
   ...
   [-0.05132327 -0.05133222 -0.18979736 ... -0.2260395  -0.22697207
    -0.22697207]
   [-0.05137119 -0.05138016 -0.19045442 ... -0.22697207 -0.22791237
    -0.22791237]
   [-0.05137119 -0.05138016 -0.19045442 ... -0.22697207 -0.22791237
    -0.22791237]]

  [[-0.0287095  -0.0287123  -0.04850574 ... -0.05057825 -0.05062479
    -0.05062479]
   [-0.0287123  -0.0287151  -0.04851373 ... -0.05058694 -0.0506335
    -0.0506335 ]
   [-0.04850574 -0.04851373 -0.15623645 ... -0.17999262 -0.18058344
    -0.18058344]
   ...
   [-0.05057825 -0.05058694 -0.17999262 ... -0.21226863 -0.21309082
    -0.21309082]
   [-0.05062479 -0.0506335  -0.18058344 ... -0.21309082 -0.21391942
    -0.21391942]
   [-0.05062479 -0.0506335  -0.18058344 ... -0.21309082 -0.21391942
    -0.21391942]]]


 [[[-0.03152183 -0.03152521 -0.05711517 ... -0.06001064 -0.06007617
    -0.06007617]
   [-0.03152521 -0.03152858 -0.05712625 ... -0.06002287 -0.06008843
    -0.06008843]
   [-0.05711517 -0.05712625 -0.30368178 ... -0.40847187 -0.4115274
    -0.4115274 ]
   ...
   [-0.06001064 -0.06002287 -0.40847187 ... -0.62368349 -0.63083514
    -0.63083514]
   [-0.06007617 -0.06008843 -0.4115274  ... -0.63083514 -0.63815271
    -0.63815271]
   [-0.06007617 -0.06008843 -0.4115274  ... -0.63083514 -0.63815271
    -0.63815271]]

  [[-0.03152183 -0.03152521 -0.05711517 ... -0.06001064 -0.06007617
    -0.06007617]
   [-0.03152521 -0.03152858 -0.05712625 ... -0.06002287 -0.06008843
    -0.06008843]
   [-0.05711517 -0.05712625 -0.30368178 ... -0.40847187 -0.4115274
    -0.4115274 ]
   ...
   [-0.06001064 -0.06002287 -0.40847187 ... -0.62368349 -0.63083514
    -0.63083514]
   [-0.06007617 -0.06008843 -0.4115274  ... -0.63083514 -0.63815271
    -0.63815271]
   [-0.06007617 -0.06008843 -0.4115274  ... -0.63083514 -0.63815271
    -0.63815271]]

  [[-0.03111088 -0.03111417 -0.05578014 ... -0.05853856 -0.05860092
    -0.05860092]
   [-0.03111417 -0.03111746 -0.05579071 ... -0.0585502  -0.05861258
    -0.05861258]
   [-0.05578014 -0.05579071 -0.269399   ... -0.34877298 -0.35099821
    -0.35099821]
   ...
   [-0.05853856 -0.0585502  -0.34877298 ... -0.49445642 -0.49894081
    -0.49894081]
   [-0.05860092 -0.05861258 -0.35099821 ... -0.49894081 -0.50350728
    -0.50350728]
   [-0.05860092 -0.05861258 -0.35099821 ... -0.49894081 -0.50350728
    -0.50350728]]

  ...

  [[-0.02894802 -0.02895087 -0.04919054 ... -0.05132327 -0.05137119
    -0.05137119]
   [-0.02895087 -0.02895372 -0.04919876 ... -0.05133222 -0.05138016
    -0.05138016]
   [-0.04919054 -0.04919876 -0.16357111 ... -0.18979736 -0.19045442
    -0.19045442]
   ...
   [-0.05132327 -0.05133222 -0.18979736 ... -0.2260395  -0.22697207
    -0.22697207]
   [-0.05137119 -0.05138016 -0.19045442 ... -0.22697207 -0.22791237
    -0.22791237]
   [-0.05137119 -0.05138016 -0.19045442 ... -0.22697207 -0.22791237
    -0.22791237]]

  [[-0.02894802 -0.02895087 -0.04919054 ... -0.05132327 -0.05137119
    -0.05137119]
   [-0.02895087 -0.02895372 -0.04919876 ... -0.05133222 -0.05138016
    -0.05138016]
   [-0.04919054 -0.04919876 -0.16357111 ... -0.18979736 -0.19045442
    -0.19045442]
   ...
   [-0.05132327 -0.05133222 -0.18979736 ... -0.2260395  -0.22697207
    -0.22697207]
   [-0.05137119 -0.05138016 -0.19045442 ... -0.22697207 -0.22791237
    -0.22791237]
   [-0.05137119 -0.05138016 -0.19045442 ... -0.22697207 -0.22791237
    -0.22791237]]

  [[-0.0287095  -0.0287123  -0.04850574 ... -0.05057825 -0.05062479
    -0.05062479]
   [-0.0287123  -0.0287151  -0.04851373 ... -0.05058694 -0.0506335
    -0.0506335 ]
   [-0.04850574 -0.04851373 -0.15623645 ... -0.17999262 -0.18058344
    -0.18058344]
   ...
   [-0.05057825 -0.05058694 -0.17999262 ... -0.21226863 -0.21309082
    -0.21309082]
   [-0.05062479 -0.0506335  -0.18058344 ... -0.21309082 -0.21391942
    -0.21391942]
   [-0.05062479 -0.0506335  -0.18058344 ... -0.21309082 -0.21391942
    -0.21391942]]]


 [[[-0.03111088 -0.03111417 -0.05578014 ... -0.05853856 -0.05860092
    -0.05860092]
   [-0.03111417 -0.03111746 -0.05579071 ... -0.0585502  -0.05861258
    -0.05861258]
   [-0.05578014 -0.05579071 -0.269399   ... -0.34877298 -0.35099821
    -0.35099821]
   ...
   [-0.05853856 -0.0585502  -0.34877298 ... -0.49445642 -0.49894081
    -0.49894081]
   [-0.05860092 -0.05861258 -0.35099821 ... -0.49894081 -0.50350728
    -0.50350728]
   [-0.05860092 -0.05861258 -0.35099821 ... -0.49894081 -0.50350728
    -0.50350728]]

  [[-0.03111088 -0.03111417 -0.05578014 ... -0.05853856 -0.05860092
    -0.05860092]
   [-0.03111417 -0.03111746 -0.05579071 ... -0.0585502  -0.05861258
    -0.05861258]
   [-0.05578014 -0.05579071 -0.269399   ... -0.34877298 -0.35099821
    -0.35099821]
   ...
   [-0.05853856 -0.0585502  -0.34877298 ... -0.49445642 -0.49894081
    -0.49894081]
   [-0.05860092 -0.05861258 -0.35099821 ... -0.49894081 -0.50350728
    -0.50350728]
   [-0.05860092 -0.05861258 -0.35099821 ... -0.49894081 -0.50350728
    -0.50350728]]

  [[-0.03071052 -0.03071372 -0.05450609 ... -0.05713697 -0.05719638
    -0.05719638]
   [-0.03071372 -0.03071692 -0.05451618 ... -0.05714806 -0.05720749
    -0.05720749]
   [-0.05450609 -0.05451618 -0.24207145 ... -0.30429913 -0.30599166
    -0.30599166]
   ...
   [-0.05713697 -0.05714806 -0.30429913 ... -0.40958956 -0.4126619
    -0.4126619 ]
   [-0.05719638 -0.05720749 -0.30599166 ... -0.4126619  -0.41578068
    -0.41578068]
   [-0.05719638 -0.05720749 -0.30599166 ... -0.4126619  -0.41578068
    -0.41578068]]

  ...

  [[-0.02860108 -0.02860385 -0.04819705 ... -0.05024271 -0.05028864
    -0.05028864]
   [-0.02860385 -0.02860663 -0.04820494 ... -0.05025128 -0.05029723
    -0.05029723]
   [-0.04819705 -0.04820494 -0.15307854 ... -0.1758142  -0.17637787
    -0.17637787]
   ...
   [-0.05024271 -0.05025128 -0.1758142  ... -0.2064814  -0.2072593
    -0.2072593 ]
   [-0.05028864 -0.05029723 -0.17637787 ... -0.2072593  -0.20804308
    -0.20804308]
   [-0.05028864 -0.05029723 -0.17637787 ... -0.2072593  -0.20804308
    -0.20804308]]

  [[-0.02860108 -0.02860385 -0.04819705 ... -0.05024271 -0.05028864
    -0.05028864]
   [-0.02860385 -0.02860663 -0.04820494 ... -0.05025128 -0.05029723
    -0.05029723]
   [-0.04819705 -0.04820494 -0.15307854 ... -0.1758142  -0.17637787
    -0.17637787]
   ...
   [-0.05024271 -0.05025128 -0.1758142  ... -0.2064814  -0.2072593
    -0.2072593 ]
   [-0.05028864 -0.05029723 -0.17637787 ... -0.2072593  -0.20804308
    -0.20804308]
   [-0.05028864 -0.05029723 -0.17637787 ... -0.2072593  -0.20804308
    -0.20804308]]

  [[-0.02836821 -0.02837094 -0.04753945 ... -0.04952851 -0.04957314
    -0.04957314]
   [-0.02837094 -0.02837368 -0.04754712 ... -0.04953684 -0.04958149
    -0.04958149]
   [-0.04753945 -0.04754712 -0.14663615 ... -0.16736881 -0.16787955
    -0.16787955]
   ...
   [-0.04952851 -0.04953684 -0.16736881 ... -0.19492959 -0.19562274
    -0.19562274]
   [-0.04957314 -0.04958149 -0.16787955 ... -0.19562274 -0.19632083
    -0.19632083]
   [-0.04957314 -0.04958149 -0.16787955 ... -0.19562274 -0.19632083
    -0.19632083]]]


 ...


 [[[-0.02894802 -0.02895087 -0.04919054 ... -0.05132327 -0.05137119
    -0.05137119]
   [-0.02895087 -0.02895372 -0.04919876 ... -0.05133222 -0.05138016
    -0.05138016]
   [-0.04919054 -0.04919876 -0.16357111 ... -0.18979736 -0.19045442
    -0.19045442]
   ...
   [-0.05132327 -0.05133222 -0.18979736 ... -0.2260395  -0.22697207
    -0.22697207]
   [-0.05137119 -0.05138016 -0.19045442 ... -0.22697207 -0.22791237
    -0.22791237]
   [-0.05137119 -0.05138016 -0.19045442 ... -0.22697207 -0.22791237
    -0.22791237]]

  [[-0.02894802 -0.02895087 -0.04919054 ... -0.05132327 -0.05137119
    -0.05137119]
   [-0.02895087 -0.02895372 -0.04919876 ... -0.05133222 -0.05138016
    -0.05138016]
   [-0.04919054 -0.04919876 -0.16357111 ... -0.18979736 -0.19045442
    -0.19045442]
   ...
   [-0.05132327 -0.05133222 -0.18979736 ... -0.2260395  -0.22697207
    -0.22697207]
   [-0.05137119 -0.05138016 -0.19045442 ... -0.22697207 -0.22791237
    -0.22791237]
   [-0.05137119 -0.05138016 -0.19045442 ... -0.22697207 -0.22791237
    -0.22791237]]

  [[-0.02860108 -0.02860385 -0.04819705 ... -0.05024271 -0.05028864
    -0.05028864]
   [-0.02860385 -0.02860663 -0.04820494 ... -0.05025128 -0.05029723
    -0.05029723]
   [-0.04819705 -0.04820494 -0.15307854 ... -0.1758142  -0.17637787
    -0.17637787]
   ...
   [-0.05024271 -0.05025128 -0.1758142  ... -0.2064814  -0.2072593
    -0.2072593 ]
   [-0.05028864 -0.05029723 -0.17637787 ... -0.2072593  -0.20804308
    -0.20804308]
   [-0.05028864 -0.05029723 -0.17637787 ... -0.2072593  -0.20804308
    -0.20804308]]

  ...

  [[-0.0267628  -0.02676523 -0.04319703 ... -0.04483306 -0.04486963
    -0.04486963]
   [-0.02676523 -0.02676766 -0.04320337 ... -0.04483989 -0.04487647
    -0.04487647]
   [-0.04319703 -0.04320337 -0.11192973 ... -0.12361848 -0.12389688
    -0.12389688]
   ...
   [-0.04483306 -0.04483989 -0.12361848 ... -0.1380332  -0.13838041
    -0.13838041]
   [-0.04486963 -0.04487647 -0.12389688 ... -0.13838041 -0.13872936
    -0.13872936]
   [-0.04486963 -0.04487647 -0.12389688 ... -0.13838041 -0.13872936
    -0.13872936]]

  [[-0.0267628  -0.02676523 -0.04319703 ... -0.04483306 -0.04486963
    -0.04486963]
   [-0.02676523 -0.02676766 -0.04320337 ... -0.04483989 -0.04487647
    -0.04487647]
   [-0.04319703 -0.04320337 -0.11192973 ... -0.12361848 -0.12389688
    -0.12389688]
   ...
   [-0.04483306 -0.04483989 -0.12361848 ... -0.1380332  -0.13838041
    -0.13838041]
   [-0.04486963 -0.04487647 -0.12389688 ... -0.13838041 -0.13872936
    -0.13872936]
   [-0.04486963 -0.04487647 -0.12389688 ... -0.13838041 -0.13872936
    -0.13872936]]

  [[-0.0265588  -0.02656119 -0.04266804 ... -0.04426351 -0.04429915
    -0.04429915]
   [-0.02656119 -0.02656359 -0.04267422 ... -0.04427016 -0.04430582
    -0.04430582]
   [-0.04266804 -0.04267422 -0.10844595 ... -0.11938286 -0.11964249
    -0.11964249]
   ...
   [-0.04426351 -0.04427016 -0.11938286 ... -0.13277321 -0.13309442
    -0.13309442]
   [-0.04429915 -0.04430582 -0.11964249 ... -0.13309442 -0.1334172
    -0.1334172 ]
   [-0.04429915 -0.04430582 -0.11964249 ... -0.13309442 -0.1334172
    -0.1334172 ]]]


 [[[-0.02894802 -0.02895087 -0.04919054 ... -0.05132327 -0.05137119
    -0.05137119]
   [-0.02895087 -0.02895372 -0.04919876 ... -0.05133222 -0.05138016
    -0.05138016]
   [-0.04919054 -0.04919876 -0.16357111 ... -0.18979736 -0.19045442
    -0.19045442]
   ...
   [-0.05132327 -0.05133222 -0.18979736 ... -0.2260395  -0.22697207
    -0.22697207]
   [-0.05137119 -0.05138016 -0.19045442 ... -0.22697207 -0.22791237
    -0.22791237]
   [-0.05137119 -0.05138016 -0.19045442 ... -0.22697207 -0.22791237
    -0.22791237]]

  [[-0.02894802 -0.02895087 -0.04919054 ... -0.05132327 -0.05137119
    -0.05137119]
   [-0.02895087 -0.02895372 -0.04919876 ... -0.05133222 -0.05138016
    -0.05138016]
   [-0.04919054 -0.04919876 -0.16357111 ... -0.18979736 -0.19045442
    -0.19045442]
   ...
   [-0.05132327 -0.05133222 -0.18979736 ... -0.2260395  -0.22697207
    -0.22697207]
   [-0.05137119 -0.05138016 -0.19045442 ... -0.22697207 -0.22791237
    -0.22791237]
   [-0.05137119 -0.05138016 -0.19045442 ... -0.22697207 -0.22791237
    -0.22791237]]

  [[-0.02860108 -0.02860385 -0.04819705 ... -0.05024271 -0.05028864
    -0.05028864]
   [-0.02860385 -0.02860663 -0.04820494 ... -0.05025128 -0.05029723
    -0.05029723]
   [-0.04819705 -0.04820494 -0.15307854 ... -0.1758142  -0.17637787
    -0.17637787]
   ...
   [-0.05024271 -0.05025128 -0.1758142  ... -0.2064814  -0.2072593
    -0.2072593 ]
   [-0.05028864 -0.05029723 -0.17637787 ... -0.2072593  -0.20804308
    -0.20804308]
   [-0.05028864 -0.05029723 -0.17637787 ... -0.2072593  -0.20804308
    -0.20804308]]

  ...

  [[-0.0267628  -0.02676523 -0.04319703 ... -0.04483306 -0.04486963
    -0.04486963]
   [-0.02676523 -0.02676766 -0.04320337 ... -0.04483989 -0.04487647
    -0.04487647]
   [-0.04319703 -0.04320337 -0.11192973 ... -0.12361848 -0.12389688
    -0.12389688]
   ...
   [-0.04483306 -0.04483989 -0.12361848 ... -0.1380332  -0.13838041
    -0.13838041]
   [-0.04486963 -0.04487647 -0.12389688 ... -0.13838041 -0.13872936
    -0.13872936]
   [-0.04486963 -0.04487647 -0.12389688 ... -0.13838041 -0.13872936
    -0.13872936]]

  [[-0.0267628  -0.02676523 -0.04319703 ... -0.04483306 -0.04486963
    -0.04486963]
   [-0.02676523 -0.02676766 -0.04320337 ... -0.04483989 -0.04487647
    -0.04487647]
   [-0.04319703 -0.04320337 -0.11192973 ... -0.12361848 -0.12389688
    -0.12389688]
   ...
   [-0.04483306 -0.04483989 -0.12361848 ... -0.1380332  -0.13838041
    -0.13838041]
   [-0.04486963 -0.04487647 -0.12389688 ... -0.13838041 -0.13872936
    -0.13872936]
   [-0.04486963 -0.04487647 -0.12389688 ... -0.13838041 -0.13872936
    -0.13872936]]

  [[-0.0265588  -0.02656119 -0.04266804 ... -0.04426351 -0.04429915
    -0.04429915]
   [-0.02656119 -0.02656359 -0.04267422 ... -0.04427016 -0.04430582
    -0.04430582]
   [-0.04266804 -0.04267422 -0.10844595 ... -0.11938286 -0.11964249
    -0.11964249]
   ...
   [-0.04426351 -0.04427016 -0.11938286 ... -0.13277321 -0.13309442
    -0.13309442]
   [-0.04429915 -0.04430582 -0.11964249 ... -0.13309442 -0.1334172
    -0.1334172 ]
   [-0.04429915 -0.04430582 -0.11964249 ... -0.13309442 -0.1334172
    -0.1334172 ]]]


 [[[-0.0287095  -0.0287123  -0.04850574 ... -0.05057825 -0.05062479
    -0.05062479]
   [-0.0287123  -0.0287151  -0.04851373 ... -0.05058694 -0.0506335
    -0.0506335 ]
   [-0.04850574 -0.04851373 -0.15623645 ... -0.17999262 -0.18058344
    -0.18058344]
   ...
   [-0.05057825 -0.05058694 -0.17999262 ... -0.21226863 -0.21309082
    -0.21309082]
   [-0.05062479 -0.0506335  -0.18058344 ... -0.21309082 -0.21391942
    -0.21391942]
   [-0.05062479 -0.0506335  -0.18058344 ... -0.21309082 -0.21391942
    -0.21391942]]

  [[-0.0287095  -0.0287123  -0.04850574 ... -0.05057825 -0.05062479
    -0.05062479]
   [-0.0287123  -0.0287151  -0.04851373 ... -0.05058694 -0.0506335
    -0.0506335 ]
   [-0.04850574 -0.04851373 -0.15623645 ... -0.17999262 -0.18058344
    -0.18058344]
   ...
   [-0.05057825 -0.05058694 -0.17999262 ... -0.21226863 -0.21309082
    -0.21309082]
   [-0.05062479 -0.0506335  -0.18058344 ... -0.21309082 -0.21391942
    -0.21391942]
   [-0.05062479 -0.0506335  -0.18058344 ... -0.21309082 -0.21391942
    -0.21391942]]

  [[-0.02836821 -0.02837094 -0.04753945 ... -0.04952851 -0.04957314
    -0.04957314]
   [-0.02837094 -0.02837368 -0.04754712 ... -0.04953684 -0.04958149
    -0.04958149]
   [-0.04753945 -0.04754712 -0.14663615 ... -0.16736881 -0.16787955
    -0.16787955]
   ...
   [-0.04952851 -0.04953684 -0.16736881 ... -0.19492959 -0.19562274
    -0.19562274]
   [-0.04957314 -0.04958149 -0.16787955 ... -0.19562274 -0.19632083
    -0.19632083]
   [-0.04957314 -0.04958149 -0.16787955 ... -0.19562274 -0.19632083
    -0.19632083]]

  ...

  [[-0.0265588  -0.02656119 -0.04266804 ... -0.04426351 -0.04429915
    -0.04429915]
   [-0.02656119 -0.02656359 -0.04267422 ... -0.04427016 -0.04430582
    -0.04430582]
   [-0.04266804 -0.04267422 -0.10844595 ... -0.11938286 -0.11964249
    -0.11964249]
   ...
   [-0.04426351 -0.04427016 -0.11938286 ... -0.13277321 -0.13309442
    -0.13309442]
   [-0.04429915 -0.04430582 -0.11964249 ... -0.13309442 -0.1334172
    -0.1334172 ]
   [-0.04429915 -0.04430582 -0.11964249 ... -0.13309442 -0.1334172
    -0.1334172 ]]

  [[-0.0265588  -0.02656119 -0.04266804 ... -0.04426351 -0.04429915
    -0.04429915]
   [-0.02656119 -0.02656359 -0.04267422 ... -0.04427016 -0.04430582
    -0.04430582]
   [-0.04266804 -0.04267422 -0.10844595 ... -0.11938286 -0.11964249
    -0.11964249]
   ...
   [-0.04426351 -0.04427016 -0.11938286 ... -0.13277321 -0.13309442
    -0.13309442]
   [-0.04429915 -0.04430582 -0.11964249 ... -0.13309442 -0.1334172
    -0.1334172 ]
   [-0.04429915 -0.04430582 -0.11964249 ... -0.13309442 -0.1334172
    -0.1334172 ]]

  [[-0.02635788 -0.02636024 -0.04215185 ... -0.04370824 -0.04374299
    -0.04374299]
   [-0.02636024 -0.0263626  -0.04215788 ... -0.04371473 -0.04374949
    -0.04374949]
   [-0.04215185 -0.04215788 -0.10517249 ... -0.11542789 -0.11567058
    -0.11567058]
   ...
   [-0.04370824 -0.04371473 -0.11542789 ... -0.12789938 -0.12819742
    -0.12819742]
   [-0.04374299 -0.04374949 -0.11567058 ... -0.12819742 -0.12849685
    -0.12849685]
   [-0.04374299 -0.04374949 -0.11567058 ... -0.12819742 -0.12849685
    -0.12849685]]]] (21, 21, 7, 7)
hf energy: -108.95408660474573
nuclear repulsion: 23.615376270296395
(28, 28, 28, 28)
(28, 28, 28, 28)
heading into energy calc: slice(None, 7, None) slice(7, None, None)
o, (28, 28, 28, 28) (21, 21, 7, 7) slice(None, 7, None) slice(7, None, None) (28, 28)
energy of fock terms: -70.9141830354582
energy with 2e ints: -132.56946287504215
initial energy: -132.56946287504215
    ==> CCSDT amplitude equations <==

     Iter              Corr. Energy                 |dE|                 |dT|

o, (28, 28, 28, 28) (21, 21, 7, 7) slice(None, 7, None) slice(7, None, None) (28, 28)
energy of fock terms: -70.9141830354582
energy with 2e ints: -132.56946287504215
        0      -0.310686642130       0.310686642130       2.469377757954

o, (28, 28, 28, 28) (21, 21, 7, 7) slice(None, 7, None) slice(7, None, None) (28, 28)
energy of fock terms: -70.9141830354582
energy with 2e ints: -132.56946287504215
        1      -0.299761493596       0.010925148534       0.440816480118

o, (28, 28, 28, 28) (21, 21, 7, 7) slice(None, 7, None) slice(7, None, None) (28, 28)
energy of fock terms: -70.9141830354582
energy with 2e ints: -132.56946287504215
        2      -0.308594639410       0.008833145814       0.063363215327

o, (28, 28, 28, 28) (21, 21, 7, 7) slice(None, 7, None) slice(7, None, None) (28, 28)
energy of fock terms: -70.9141830354582
energy with 2e ints: -132.56946287504215
        3      -0.309074865876       0.000480226467       0.038067261684

o, (28, 28, 28, 28) (21, 21, 7, 7) slice(None, 7, None) slice(7, None, None) (28, 28)
energy of fock terms: -70.9141830354582
energy with 2e ints: -132.56946287504215
        4      -0.309703350162       0.000628484286       0.016331991050

o, (28, 28, 28, 28) (21, 21, 7, 7) slice(None, 7, None) slice(7, None, None) (28, 28)
energy of fock terms: -70.9141830354582
energy with 2e ints: -132.56946287504215
        5      -0.309894324263       0.000190974101       0.008967030519

o, (28, 28, 28, 28) (21, 21, 7, 7) slice(None, 7, None) slice(7, None, None) (28, 28)
energy of fock terms: -70.9141830354582
energy with 2e ints: -132.56946287504215
        6      -0.310000133017       0.000105808754       0.004761982113

o, (28, 28, 28, 28) (21, 21, 7, 7) slice(None, 7, None) slice(7, None, None) (28, 28)
energy of fock terms: -70.9141830354582
energy with 2e ints: -132.56946287504215
        7      -0.310050499840       0.000050366823       0.002603907691

o, (28, 28, 28, 28) (21, 21, 7, 7) slice(None, 7, None) slice(7, None, None) (28, 28)
energy of fock terms: -70.9141830354582
energy with 2e ints: -132.56946287504215
        8      -0.310077093328       0.000026593488       0.001424370941

o, (28, 28, 28, 28) (21, 21, 7, 7) slice(None, 7, None) slice(7, None, None) (28, 28)
energy of fock terms: -70.9141830354582
energy with 2e ints: -132.56946287504215
        9      -0.310091098981       0.000014005653       0.000782791618

o, (28, 28, 28, 28) (21, 21, 7, 7) slice(None, 7, None) slice(7, None, None) (28, 28)
energy of fock terms: -70.9141830354582
energy with 2e ints: -132.56946287504215
       10      -0.310098632711       0.000007533730       0.000430733381

o, (28, 28, 28, 28) (21, 21, 7, 7) slice(None, 7, None) slice(7, None, None) (28, 28)
energy of fock terms: -70.9141830354582
energy with 2e ints: -132.56946287504215
       11      -0.310102710239       0.000004077528       0.000237294746

o, (28, 28, 28, 28) (21, 21, 7, 7) slice(None, 7, None) slice(7, None, None) (28, 28)
energy of fock terms: -70.9141830354582
energy with 2e ints: -132.56946287504215
       12      -0.310104931494       0.000002221255       0.000130806893

o, (28, 28, 28, 28) (21, 21, 7, 7) slice(None, 7, None) slice(7, None, None) (28, 28)
energy of fock terms: -70.9141830354582
energy with 2e ints: -132.56946287504215
       13      -0.310106145867       0.000001214373       0.000072137715

o, (28, 28, 28, 28) (21, 21, 7, 7) slice(None, 7, None) slice(7, None, None) (28, 28)
energy of fock terms: -70.9141830354582
energy with 2e ints: -132.56946287504215
       14      -0.310106811565       0.000000665699       0.000039793661

o, (28, 28, 28, 28) (21, 21, 7, 7) slice(None, 7, None) slice(7, None, None) (28, 28)
energy of fock terms: -70.9141830354582
energy with 2e ints: -132.56946287504215
       15      -0.310107177150       0.000000365585       0.000021955769

o, (28, 28, 28, 28) (21, 21, 7, 7) slice(None, 7, None) slice(7, None, None) (28, 28)
energy of fock terms: -70.9141830354582
energy with 2e ints: -132.56946287504215
       16      -0.310107378183       0.000000201033       0.000012115474

o, (28, 28, 28, 28) (21, 21, 7, 7) slice(None, 7, None) slice(7, None, None) (28, 28)
energy of fock terms: -70.9141830354582
energy with 2e ints: -132.56946287504215
       17      -0.310107488834       0.000000110651       0.000006686094

o, (28, 28, 28, 28) (21, 21, 7, 7) slice(None, 7, None) slice(7, None, None) (28, 28)
energy of fock terms: -70.9141830354582
energy with 2e ints: -132.56946287504215
       18      -0.310107549779       0.000000060946       0.000003690057

o, (28, 28, 28, 28) (21, 21, 7, 7) slice(None, 7, None) slice(7, None, None) (28, 28)
energy of fock terms: -70.9141830354582
energy with 2e ints: -132.56946287504215
       19      -0.310107583365       0.000000033586       0.000002036641

o, (28, 28, 28, 28) (21, 21, 7, 7) slice(None, 7, None) slice(7, None, None) (28, 28)
energy of fock terms: -70.9141830354582
energy with 2e ints: -132.56946287504215
       20      -0.310107601880       0.000000018515       0.000001124115

o, (28, 28, 28, 28) (21, 21, 7, 7) slice(None, 7, None) slice(7, None, None) (28, 28)
energy of fock terms: -70.9141830354582
energy with 2e ints: -132.56946287504215
       21      -0.310107612090       0.000000010210       0.000000620466

o, (28, 28, 28, 28) (21, 21, 7, 7) slice(None, 7, None) slice(7, None, None) (28, 28)
energy of fock terms: -70.9141830354582
energy with 2e ints: -132.56946287504215
       22      -0.310107617722       0.000000005632       0.000000342479

o, (28, 28, 28, 28) (21, 21, 7, 7) slice(None, 7, None) slice(7, None, None) (28, 28)
energy of fock terms: -70.9141830354582
energy with 2e ints: -132.56946287504215
       23      -0.310107620829       0.000000003107       0.000000189041

o, (28, 28, 28, 28) (21, 21, 7, 7) slice(None, 7, None) slice(7, None, None) (28, 28)
energy of fock terms: -70.9141830354582
energy with 2e ints: -132.56946287504215
       24      -0.310107622543       0.000000001714       0.000000104347

o, (28, 28, 28, 28) (21, 21, 7, 7) slice(None, 7, None) slice(7, None, None) (28, 28)
energy of fock terms: -70.9141830354582
energy with 2e ints: -132.56946287504215
       25      -0.310107623489       0.000000000946       0.000000057599

o, (28, 28, 28, 28) (21, 21, 7, 7) slice(None, 7, None) slice(7, None, None) (28, 28)
energy of fock terms: -70.9141830354582
energy with 2e ints: -132.56946287504215
       26      -0.310107624011       0.000000000522       0.000000031794

o, (28, 28, 28, 28) (21, 21, 7, 7) slice(None, 7, None) slice(7, None, None) (28, 28)
energy of fock terms: -70.9141830354582
energy with 2e ints: -132.56946287504215
       27      -0.310107624299       0.000000000288       0.000000017550

o, (28, 28, 28, 28) (21, 21, 7, 7) slice(None, 7, None) slice(7, None, None) (28, 28)
energy of fock terms: -70.9141830354582
energy with 2e ints: -132.56946287504215
       28      -0.310107624458       0.000000000159       0.000000009688

o, (28, 28, 28, 28) (21, 21, 7, 7) slice(None, 7, None) slice(7, None, None) (28, 28)
energy of fock terms: -70.9141830354582
energy with 2e ints: -132.56946287504215
       29      -0.310107624546       0.000000000088       0.000000005347

o, (28, 28, 28, 28) (21, 21, 7, 7) slice(None, 7, None) slice(7, None, None) (28, 28)
energy of fock terms: -70.9141830354582
energy with 2e ints: -132.56946287504215
       30      -0.310107624594       0.000000000048       0.000000002952

o, (28, 28, 28, 28) (21, 21, 7, 7) slice(None, 7, None) slice(7, None, None) (28, 28)
energy of fock terms: -70.9141830354582
energy with 2e ints: -132.56946287504215
       31      -0.310107624621       0.000000000027       0.000000001629

o, (28, 28, 28, 28) (21, 21, 7, 7) slice(None, 7, None) slice(7, None, None) (28, 28)
energy of fock terms: -70.9141830354582
energy with 2e ints: -132.56946287504215
       32      -0.310107624635       0.000000000015       0.000000000899

o, (28, 28, 28, 28) (21, 21, 7, 7) slice(None, 7, None) slice(7, None, None) (28, 28)
energy of fock terms: -70.9141830354582
energy with 2e ints: -132.56946287504215
       33      -0.310107624644       0.000000000008       0.000000000496

o, (28, 28, 28, 28) (21, 21, 7, 7) slice(None, 7, None) slice(7, None, None) (28, 28)
energy of fock terms: -70.9141830354582
energy with 2e ints: -132.56946287504215
       34      -0.310107624648       0.000000000005       0.000000000274

o, (28, 28, 28, 28) (21, 21, 7, 7) slice(None, 7, None) slice(7, None, None) (28, 28)
energy of fock terms: -70.9141830354582
energy with 2e ints: -132.56946287504215
       35      -0.310107624651       0.000000000002       0.000000000151

o, (28, 28, 28, 28) (21, 21, 7, 7) slice(None, 7, None) slice(7, None, None) (28, 28)
energy of fock terms: -70.9141830354582
energy with 2e ints: -132.56946287504215
       36      -0.310107624652       0.000000000001       0.000000000084








Final, total correlated energy: -109.26419422939773
Final CCD correlation contribution: -0.31010762465200514
