#INFO: **** input file is /blue/bartlett/z.windom/MOLSSI_develop/test/build_T2_interfaces/RECORDS/verify_spin_CCD/pyscfCode/N2_equil_UHF/run_pyscf.py ****
import numpy as np
import pyscf
from pyscf import ao2mo


def main():
    """ Initialize calculation details, 2e- integrals, Fock matrix, etc """

    # run pyscf for some reason
    basis = '6-31G'#'ccpvdz'
    mol = pyscf.M(
        atom='H 0 0 0; F 0 0 {}'.format(0.917), #'N 0 0 0; N 0 0 {}'.format(2.0749193),
        #atom='Be 0 0 0'
        verbose=5,
        #unit='b',
        basis=basis)


    mf = mol.UHF()
    mf.init_guess='1e'
    mf.conv_tol_grad=1E-10
    mf.run()

    from pyscf.lib import logger

    def stable_opt_internal(mf):
        log = logger.new_logger(mf)
        mo1, _, stable, _ = mf.stability(return_status=True)
        cyc = 0
        while (not stable and cyc < 10):
            log.note('Try to optimize orbitals until stable, attempt %d' % cyc)
            dm1 = mf.make_rdm1(mo1, mf.mo_occ)
            mf = mf.run(dm1)
            mo1, _, stable, _ = mf.stability(return_status=True)
            cyc += 1
        if not stable:
            log.note('Stability Opt failed after %d attempts' % cyc)
        return mf
    print('loop example')
    mf = stable_opt_internal(mf)

    orb=mf.mo_coeff
    print(np.shape(mf.get_hcore()))
    print(np.shape(orb))
    import run_ccd as run_ccd 
 
    cc_runtype={"ccdType":"pCCD"}

    run_ccd.ccd_main(mf,mol,orb,cc_runtype)


main()
#INFO: ******************** input file end ********************


System: uname_result(system='Linux', node='login2.ufhpc', release='3.10.0-1160.80.1.el7.x86_64', version='#1 SMP Sat Oct 8 18:13:21 UTC 2022', machine='x86_64', processor='x86_64')  Threads 32
Python 3.7.12 | packaged by conda-forge | (default, Oct 26 2021, 06:08:21) 
[GCC 9.4.0]
numpy 1.21.6  scipy 1.7.3
Date: Mon Jan 30 20:32:36 2023
PySCF version 2.1.1
PySCF path  /blue/bartlett/z.windom/MOLSSI_develop/T2method/new/pyscf
GIT ORIG_HEAD 41535e74b1de6eb21fc9b6a13c089d6cd55b35d7
GIT HEAD (branch master) ff882f83f5730ea5610d52cc5b88d278f9b71da7

[ENV] PYSCF_INC_DIR /home/z.windom/libxc-4.3.4
[CONFIG] conf_file /home/z.windom/.pyscf_conf.py
[INPUT] verbose = 5
[INPUT] max_memory = 4000 
[INPUT] num. atoms = 2
[INPUT] num. electrons = 10
[INPUT] charge = 0
[INPUT] spin (= nelec alpha-beta = 2S) = 0
[INPUT] symmetry False subgroup None
[INPUT] Mole.unit = angstrom
[INPUT] Symbol           X                Y                Z      unit          X                Y                Z       unit  Magmom
[INPUT]  1 H      0.000000000000   0.000000000000   0.000000000000 AA    0.000000000000   0.000000000000   0.000000000000 Bohr   0.0
[INPUT]  2 F      0.000000000000   0.000000000000   0.917000000000 AA    0.000000000000   0.000000000000   1.732878856226 Bohr   0.0
[INPUT] ---------------- BASIS SET ---------------- 
[INPUT] l, kappa, [nprim/nctr], expnt,             c_1 c_2 ...
[INPUT] H
[INPUT] 0    0    [3    /1   ]  18.731137         0.0334946
                                2.8253937         0.23472695
                                0.6401217         0.81375733
[INPUT] 0    0    [1    /1   ]  0.1612778            1
[INPUT] F
[INPUT] 0    0    [6    /1   ]  7001.71309        0.0018196169
                                1051.36609        0.0139160796
                                239.28569         0.0684053245
                                67.3974453        0.23318576
                                21.5199573        0.471267439
                                7.4031013         0.356618546
[INPUT] 0    0    [3    /1   ]  20.8479528        -0.108506975
                                4.80830834        -0.146451658
                                1.34406986        1.12868858
[INPUT] 0    0    [1    /1   ]  0.358151393          1
[INPUT] 1    0    [3    /1   ]  20.8479528        0.0716287243
                                4.80830834        0.345912103
                                1.34406986        0.722469957
[INPUT] 1    0    [1    /1   ]  0.358151393          1

nuclear repulsion = 5.19366946377317
number of shells = 7
number of NR pGTOs = 26
number of NR cGTOs = 11
basis = 6-31G
ecp = {}
CPU time:         3.12


******** <class 'pyscf.scf.uhf.UHF'> ********
method = UHF
initial guess = 1e
damping factor = 0
level_shift factor = 0
DIIS = <class 'pyscf.scf.diis.CDIIS'>
diis_start_cycle = 1
diis_space = 8
SCF conv_tol = 1e-09
SCF conv_tol_grad = 1e-10
SCF max_cycles = 50
direct_scf = True
direct_scf_tol = 1e-13
chkfile to save SCF result = /blue/bartlett/z.windom/MOLSSI_develop/test/build_T2_interfaces/RECORDS/verify_spin_CCD/pyscfCode/N2_equil_UHF/tmps6gblyyk
max_memory 4000 MB (current use 85 MB)
number electrons alpha = 5  beta = 5
Initial guess from hcore.
  alpha nocc = 5  HOMO = -10.0936607887869  LUMO = -5.09275799553285
  beta  nocc = 5  HOMO = -10.0936607887869  LUMO = -5.09275799553285
  alpha mo_energy =
[-41.02296897 -10.44106609 -10.09553976 -10.09366079 -10.09366079
  -5.092758    -4.46049268  -4.406218    -4.406218    -3.81136747
  -2.66937615]
  beta  mo_energy =
[-41.02296897 -10.44106609 -10.09553976 -10.09366079 -10.09366079
  -5.092758    -4.46049268  -4.406218    -4.406218    -3.81136747
  -2.66937615]
multiplicity <S^2> = 0  2S+1 = 1
E1 = -163.11304118007217  Ecoul = 64.29824950165359
init E= -93.6211222146454
cond(S) = 25.594965630916704
    CPU time for initialize scf      1.83 sec, wall time      0.18 sec

WARN: alpha nocc = 5  HOMO 0.542024842708577 >= LUMO 0.542024842708582


WARN: beta  nocc = 5  HOMO 0.546137462869181 >= LUMO 0.546137462869183

  alpha mo_energy =
[-22.4812788   -0.41201957   0.13359938   0.45986465   0.54202484
   0.54202484   1.31849429   2.38135869   2.38135869   2.44055339
   2.69685047]
  beta  mo_energy =
[-22.4834938   -0.36148959   0.12811038   0.46958933   0.54613746
   0.54613746   1.31578262   2.3830793    2.3830793    2.44019944
   2.69780083]
multiplicity <S^2> = 0.93811509  2S+1 = 2.1800138
E1 = -133.40875216651511  Ecoul = 31.823829352882996
cycle= 1 E= -96.3912533498589  delta_E= -2.77  |g|= 2.63  |ddm|=  6.2
    CPU time for cycle= 1      0.72 sec, wall time      0.03 sec
  alpha nocc = 5  HOMO = -1.44467612019319  LUMO = -0.168201580088022
  beta  nocc = 5  HOMO = -1.44349905647055  LUMO = -0.171927055527221
  alpha mo_energy =
[-29.30858004  -2.94533292  -2.06991722  -2.01649425  -1.44467612
  -0.16820158   0.4453095    0.4529109    0.59193572   0.91295171
   1.26147263]
  beta  mo_energy =
[-29.30769484  -2.94141591  -2.06752226  -2.00855052  -1.44349906
  -0.17192706   0.44371755   0.45256758   0.59186027   0.9094157
   1.26096089]
multiplicity <S^2> = 0.0073246083  2S+1 = 1.0145435
E1 = -158.69778465364197  Ecoul = 54.90280568892554
cycle= 2 E= -98.6013095009433  delta_E= -2.21  |g|= 1.95  |ddm|= 5.35
    CPU time for cycle= 2      1.04 sec, wall time      0.06 sec
  alpha nocc = 5  HOMO = -0.581409522896711  LUMO = 0.0573755300318616
  beta  nocc = 5  HOMO = -0.580880130044267  LUMO = 0.0570409132164113
  alpha mo_energy =
[-26.61750389  -1.8128341   -0.95036658  -0.87929292  -0.58140952
   0.05737553   1.03752752   1.23337342   1.2667024    1.33660297
   1.81435335]
  beta  mo_energy =
[-26.61688305  -1.81068691  -0.9486184   -0.87829175  -0.58088013
   0.05704091   1.03518471   1.23362254   1.2669161    1.33653837
   1.81518805]
multiplicity <S^2> = 0.0010000296  2S+1 = 1.0019981
E1 = -152.85696705637847  Ecoul = 47.77792536216356
cycle= 3 E= -99.8853722304417  delta_E= -1.28  |g|= 0.518  |ddm|= 0.871
    CPU time for cycle= 3      0.37 sec, wall time      0.03 sec
  alpha nocc = 5  HOMO = -0.653317746448469  LUMO = 0.183624847904531
  beta  nocc = 5  HOMO = -0.652883798672832  LUMO = 0.183935949292626
  alpha mo_energy =
[-26.39681011  -1.63332513  -0.78925176  -0.66190532  -0.65331775
   0.18362485   1.08653367   1.47600343   1.47868746   1.58036513
   1.98185018]
  beta  mo_energy =
[-26.39638864  -1.63229736  -0.78879505  -0.66136703  -0.6528838
   0.18393595   1.08571919   1.47627305   1.47890987   1.58073093
   1.98240534]
multiplicity <S^2> = 5.0856129e-05  2S+1 = 1.0001017
E1 = -151.00657604606312  Ecoul = 45.83381416351027
cycle= 4 E= -99.9790924187797  delta_E= -0.0937  |g|= 0.0865  |ddm|= 0.255
    CPU time for cycle= 4      0.21 sec, wall time      0.02 sec
  alpha nocc = 5  HOMO = -0.62146103811075  LUMO = 0.207966571247542
  beta  nocc = 5  HOMO = -0.621217563015758  LUMO = 0.208005338345389
  alpha mo_energy =
[-26.26493491  -1.58527957  -0.73912352  -0.6254935   -0.62146104
   0.20796657   1.11562636   1.4904036    1.49054431   1.5928823
   2.00628513]
  beta  mo_energy =
[-26.26473889  -1.58480138  -0.73863194  -0.62523933  -0.62121756
   0.20800534   1.11515339   1.49053611   1.49068563   1.59319206
   2.00650745]
multiplicity <S^2> = 2.6032346e-06  2S+1 = 1.0000052
E1 = -150.62098080951486  Ecoul = 45.4439698820689
cycle= 5 E= -99.9833414636728  delta_E= -0.00425  |g|= 0.00818  |ddm|= 0.0864
    CPU time for cycle= 5      0.32 sec, wall time      0.02 sec
  alpha nocc = 5  HOMO = -0.630826485132754  LUMO = 0.209252007888515
  beta  nocc = 5  HOMO = -0.630696256131285  LUMO = 0.209268853229338
  alpha mo_energy =
[-26.27671725  -1.59001028  -0.73983469  -0.63150639  -0.63082649
   0.20925201   1.11662974   1.48905044   1.48921488   1.59237368
   2.00560074]
  beta  mo_energy =
[-26.2766069   -1.58976862  -0.73949687  -0.63137561  -0.63069626
   0.20926885   1.11639369   1.48912451   1.48928858   1.59258272
   2.00571938]
multiplicity <S^2> = 9.5571994e-07  2S+1 = 1.0000019
E1 = -150.62706119141234  Ecoul = 45.44998479170052
cycle= 6 E= -99.9834069359386  delta_E= -6.55e-05  |g|= 0.00171  |ddm|= 0.0125
    CPU time for cycle= 6      0.40 sec, wall time      0.03 sec
  alpha nocc = 5  HOMO = -0.631160543985856  LUMO = 0.209627149497512
  beta  nocc = 5  HOMO = -0.631089395790205  LUMO = 0.209635996335014
  alpha mo_energy =
[-26.27626502  -1.58994157  -0.73934545  -0.63137578  -0.63116054
   0.20962715   1.11684021   1.48922269   1.48931472   1.59292029
   2.00592054]
  beta  mo_energy =
[-26.2762027   -1.5898039   -0.73913847  -0.6313047   -0.6310894
   0.209636     1.11670254   1.48926145   1.48935387   1.59304732
   2.00598641]
multiplicity <S^2> = 3.2389438e-07  2S+1 = 1.0000006
E1 = -150.62312646973783  Ecoul = 45.44604819747388
cycle= 7 E= -99.9834088084908  delta_E= -1.87e-06  |g|= 0.000474  |ddm|= 0.00182
    CPU time for cycle= 7      0.27 sec, wall time      0.02 sec
  alpha nocc = 5  HOMO = -0.631015008521192  LUMO = 0.209681641908875
  beta  nocc = 5  HOMO = -0.630977382301438  LUMO = 0.209687219819849
  alpha mo_energy =
[-26.27569086  -1.58962512  -0.73901005  -0.63103827  -0.63101501
   0.20968164   1.11684735   1.48946001   1.4894682    1.59317696
   2.0060988 ]
  beta  mo_energy =
[-26.27565682  -1.5895501   -0.73889686  -0.63100063  -0.63097738
   0.20968722   1.11677149   1.48948045   1.48948862   1.59324736
   2.0061358 ]
multiplicity <S^2> = 9.689899e-08  2S+1 = 1.0000002
E1 = -150.6214213340993  Ecoul = 45.444342956980044
cycle= 8 E= -99.9834089133461  delta_E= -1.05e-07  |g|= 9.95e-05  |ddm|= 0.000362
    CPU time for cycle= 8      0.26 sec, wall time      0.02 sec
  alpha nocc = 5  HOMO = -0.630998642122669  LUMO = 0.209713873632627
  beta  nocc = 5  HOMO = -0.630997855036717  LUMO = 0.209713981562298
  alpha mo_energy =
[-26.27566983  -1.58958419  -0.73895628  -0.63104396  -0.63099864
   0.20971387   1.11683138   1.48948431   1.48950036   1.59322791
   2.00613486]
  beta  mo_energy =
[-26.2756685   -1.58958085  -0.73894993  -0.63104318  -0.63099786
   0.20971398   1.11682714   1.4894845    1.48950058   1.59323176
   2.00613672]
multiplicity <S^2> = 7.0015638e-10  2S+1 = 1
E1 = -150.62118953964  Ecoul = 45.444111144177015
cycle= 9 E= -99.9834089316898  delta_E= -1.83e-08  |g|= 5.97e-05  |ddm|= 0.000296
    CPU time for cycle= 9      0.26 sec, wall time      0.02 sec
  alpha nocc = 5  HOMO = -0.631030623570514  LUMO = 0.209691482313748
  beta  nocc = 5  HOMO = -0.63103037915758  LUMO = 0.209691624887444
  alpha mo_energy =
[-26.27571877  -1.58960849  -0.73897645  -0.63103497  -0.63103062
   0.20969148   1.11681297   1.48946794   1.48947129   1.59320279
   2.00611213]
  beta  mo_energy =
[-26.27571838  -1.58960754  -0.73897475  -0.63103473  -0.63103038
   0.20969162   1.11681169   1.489468     1.48947136   1.5932039
   2.00611272]
multiplicity <S^2> = 5.7633898e-11  2S+1 = 1
E1 = -150.62145010089563  Ecoul = 45.44437170386891
cycle= 10 E= -99.9834089332535  delta_E= -1.56e-09  |g|= 5.95e-06  |ddm|= 5.42e-05
    CPU time for cycle= 10      0.27 sec, wall time      0.02 sec
  alpha nocc = 5  HOMO = -0.631030582556824  LUMO = 0.209693731624739
  beta  nocc = 5  HOMO = -0.631030647580585  LUMO = 0.209693716412383
  alpha mo_energy =
[-26.27571509  -1.58960673  -0.73897582  -0.63103127  -0.63103058
   0.20969373   1.11681437   1.48947012   1.48947062   1.59320399
   2.00611372]
  beta  mo_energy =
[-26.2757151   -1.58960671  -0.73897567  -0.63103133  -0.63103065
   0.20969372   1.11681425   1.48947006   1.48947056   1.59320406
   2.00611375]
multiplicity <S^2> = 9.4502184e-13  2S+1 = 1
E1 = -150.6214376122265  Ecoul = 45.44435921517155
cycle= 11 E= -99.9834089332818  delta_E= -2.82e-11  |g|= 1.01e-06  |ddm|= 7.46e-06
    CPU time for cycle= 11      0.26 sec, wall time      0.02 sec
  alpha nocc = 5  HOMO = -0.631031085167998  LUMO = 0.209693695225218
  beta  nocc = 5  HOMO = -0.631031115351519  LUMO = 0.209693693892281
  alpha mo_energy =
[-26.27571494  -1.58960667  -0.7389755   -0.63103111  -0.63103109
   0.2096937    1.11681449   1.4894702    1.48947022   1.59320389
   2.00611371]
  beta  mo_energy =
[-26.27571495  -1.58960668  -0.7389755   -0.63103114  -0.63103112
   0.20969369   1.11681448   1.48947018   1.4894702    1.59320388
   2.00611371]
multiplicity <S^2> = 1.7763568e-15  2S+1 = 1
E1 = -150.62143804427228  Ecoul = 45.44435964721671
cycle= 12 E= -99.9834089332824  delta_E= -6.25e-13  |g|= 7.2e-08  |ddm|= 1.28e-06
    CPU time for cycle= 12      0.26 sec, wall time      0.02 sec
  alpha nocc = 5  HOMO = -0.631031112946939  LUMO = 0.209693701161231
  beta  nocc = 5  HOMO = -0.631031127247266  LUMO = 0.209693699950123
  alpha mo_energy =
[-26.27571496  -1.58960667  -0.73897552  -0.63103112  -0.63103111
   0.2096937    1.11681447   1.48947019   1.4894702    1.5932039
   2.00611371]
  beta  mo_energy =
[-26.27571497  -1.58960668  -0.73897552  -0.63103113  -0.63103113
   0.2096937    1.11681447   1.48947018   1.48947019   1.5932039
   2.00611371]
multiplicity <S^2> = 0  2S+1 = 1
E1 = -150.62143797807778  Ecoul = 45.44435958102216
cycle= 13 E= -99.9834089332824  delta_E= -5.68e-14  |g|= 1.98e-08  |ddm|= 9.17e-08
    CPU time for cycle= 13      0.27 sec, wall time      0.02 sec
Linear dependence found in DIIS error vectors.
  alpha nocc = 5  HOMO = -0.631031116428438  LUMO = 0.209693700170063
  beta  nocc = 5  HOMO = -0.631031126923267  LUMO = 0.209693699280929
  alpha mo_energy =
[-26.27571496  -1.58960667  -0.73897552  -0.63103112  -0.63103112
   0.2096937    1.11681447   1.48947019   1.4894702    1.5932039
   2.00611371]
  beta  mo_energy =
[-26.27571497  -1.58960668  -0.73897552  -0.63103113  -0.63103113
   0.2096937    1.11681447   1.48947018   1.48947019   1.5932039
   2.00611371]
multiplicity <S^2> = -3.5527137e-15  2S+1 = 1
E1 = -150.6214379779818  Ecoul = 45.44435958092616
cycle= 14 E= -99.9834089332825  delta_E= -1.42e-14  |g|= 1.39e-08  |ddm|= 8.78e-09
    CPU time for cycle= 14      0.27 sec, wall time      0.02 sec
Linear dependence found in DIIS error vectors.
  alpha nocc = 5  HOMO = -0.631031117887182  LUMO = 0.209693699666841
  beta  nocc = 5  HOMO = -0.631031126540172  LUMO = 0.209693698940925
  alpha mo_energy =
[-26.27571496  -1.58960667  -0.73897552  -0.63103112  -0.63103112
   0.2096937    1.11681447   1.48947019   1.48947019   1.5932039
   2.00611371]
  beta  mo_energy =
[-26.27571497  -1.58960668  -0.73897552  -0.63103113  -0.63103113
   0.2096937    1.11681447   1.48947018   1.48947019   1.5932039
   2.00611371]
multiplicity <S^2> = -3.5527137e-15  2S+1 = 1
E1 = -150.62143797805206  Ecoul = 45.44435958099646
cycle= 15 E= -99.9834089332824  delta_E= 4.26e-14  |g|= 1.12e-08  |ddm|= 4.03e-09
    CPU time for cycle= 15      0.28 sec, wall time      0.02 sec
Linear dependence found in DIIS error vectors.
  alpha nocc = 5  HOMO = -0.631031118482802  LUMO = 0.209693698957466
  beta  nocc = 5  HOMO = -0.631031126160649  LUMO = 0.209693698315613
  alpha mo_energy =
[-26.27571497  -1.58960667  -0.73897552  -0.63103112  -0.63103112
   0.2096937    1.11681447   1.48947019   1.48947019   1.5932039
   2.00611371]
  beta  mo_energy =
[-26.27571497  -1.58960668  -0.73897552  -0.63103113  -0.63103113
   0.2096937    1.11681447   1.48947019   1.48947019   1.5932039
   2.00611371]
multiplicity <S^2> = 2.6645353e-15  2S+1 = 1
E1 = -150.62143798379356  Ecoul = 45.44435958673792
cycle= 16 E= -99.9834089332825  delta_E= -4.26e-14  |g|= 9.83e-09  |ddm|= 4.15e-09
    CPU time for cycle= 16      0.26 sec, wall time      0.02 sec
Linear dependence found in DIIS error vectors.
  alpha nocc = 5  HOMO = -0.631031119139771  LUMO = 0.209693698820067
  beta  nocc = 5  HOMO = -0.631031125659346  LUMO = 0.209693698298864
  alpha mo_energy =
[-26.27571497  -1.58960667  -0.73897552  -0.63103112  -0.63103112
   0.2096937    1.11681447   1.48947019   1.48947019   1.5932039
   2.00611371]
  beta  mo_energy =
[-26.27571497  -1.58960668  -0.73897552  -0.63103113  -0.63103113
   0.2096937    1.11681447   1.48947019   1.48947019   1.5932039
   2.00611371]
multiplicity <S^2> = -4.4408921e-15  2S+1 = 1
E1 = -150.62143798329404  Ecoul = 45.444359586238434
cycle= 17 E= -99.9834089332824  delta_E= 2.84e-14  |g|= 8.73e-09  |ddm|= 3.43e-09
    CPU time for cycle= 17      0.26 sec, wall time      0.02 sec
Linear dependence found in DIIS error vectors.
  alpha nocc = 5  HOMO = -0.631031117753617  LUMO = 0.209693698858815
  beta  nocc = 5  HOMO = -0.631031124230927  LUMO = 0.209693698311136
  alpha mo_energy =
[-26.27571496  -1.58960667  -0.73897552  -0.63103112  -0.63103112
   0.2096937    1.11681447   1.48947019   1.48947019   1.5932039
   2.00611371]
  beta  mo_energy =
[-26.27571497  -1.58960668  -0.73897552  -0.63103113  -0.63103112
   0.2096937    1.11681447   1.48947019   1.48947019   1.5932039
   2.00611371]
multiplicity <S^2> = -1.7763568e-15  2S+1 = 1
E1 = -150.62143797563365  Ecoul = 45.44435957857803
cycle= 18 E= -99.9834089332824  delta_E= -1.42e-14  |g|= 8.4e-09  |ddm|= 3.73e-09
    CPU time for cycle= 18      0.26 sec, wall time      0.02 sec
Linear dependence found in DIIS error vectors.
  alpha nocc = 5  HOMO = -0.631031118075506  LUMO = 0.209693698760528
  beta  nocc = 5  HOMO = -0.631031124000297  LUMO = 0.209693698267668
  alpha mo_energy =
[-26.27571496  -1.58960667  -0.73897552  -0.63103112  -0.63103112
   0.2096937    1.11681447   1.48947019   1.48947019   1.5932039
   2.00611371]
  beta  mo_energy =
[-26.27571496  -1.58960668  -0.73897552  -0.63103113  -0.63103112
   0.2096937    1.11681447   1.48947019   1.48947019   1.5932039
   2.00611371]
multiplicity <S^2> = 3.5527137e-15  2S+1 = 1
E1 = -150.62143797430826  Ecoul = 45.44435957725261
cycle= 19 E= -99.9834089332825  delta_E= -2.84e-14  |g|= 7.72e-09  |ddm|= 1.26e-09
    CPU time for cycle= 19      0.50 sec, wall time      0.04 sec
Linear dependence found in DIIS error vectors.
  alpha nocc = 5  HOMO = -0.631031118392387  LUMO = 0.209693698662328
  beta  nocc = 5  HOMO = -0.631031124080325  LUMO = 0.209693698197031
  alpha mo_energy =
[-26.27571496  -1.58960667  -0.73897552  -0.63103112  -0.63103112
   0.2096937    1.11681447   1.48947019   1.48947019   1.5932039
   2.00611371]
  beta  mo_energy =
[-26.27571497  -1.58960668  -0.73897552  -0.63103113  -0.63103112
   0.2096937    1.11681447   1.48947019   1.48947019   1.5932039
   2.00611371]
multiplicity <S^2> = -1.7763568e-15  2S+1 = 1
E1 = -150.6214379759487  Ecoul = 45.444359578893064
cycle= 20 E= -99.9834089332825  delta_E=    0  |g|= 7.54e-09  |ddm|= 2.29e-09
    CPU time for cycle= 20      0.10 sec, wall time      0.01 sec
Linear dependence found in DIIS error vectors.
  alpha nocc = 5  HOMO = -0.631031120751748  LUMO = 0.20969369850548
  beta  nocc = 5  HOMO = -0.631031124905585  LUMO = 0.20969369817194
  alpha mo_energy =
[-26.27571496  -1.58960667  -0.73897552  -0.63103112  -0.63103112
   0.2096937    1.11681447   1.48947019   1.48947019   1.5932039
   2.00611371]
  beta  mo_energy =
[-26.27571497  -1.58960668  -0.73897552  -0.63103113  -0.63103112
   0.2096937    1.11681447   1.48947019   1.48947019   1.5932039
   2.00611371]
multiplicity <S^2> = -8.8817842e-16  2S+1 = 1
E1 = -150.6214379781229  Ecoul = 45.44435958106735
cycle= 21 E= -99.9834089332824  delta_E= 8.53e-14  |g|= 5.09e-09  |ddm|= 4.39e-09
    CPU time for cycle= 21      0.09 sec, wall time      0.01 sec
Linear dependence found in DIIS error vectors.
  alpha nocc = 5  HOMO = -0.631031121190522  LUMO = 0.20969369844267
  beta  nocc = 5  HOMO = -0.631031124701723  LUMO = 0.209693698162722
  alpha mo_energy =
[-26.27571496  -1.58960667  -0.73897552  -0.63103112  -0.63103112
   0.2096937    1.11681447   1.48947019   1.48947019   1.5932039
   2.00611371]
  beta  mo_energy =
[-26.27571497  -1.58960668  -0.73897552  -0.63103113  -0.63103112
   0.2096937    1.11681447   1.48947019   1.48947019   1.5932039
   2.00611371]
multiplicity <S^2> = -8.8817842e-16  2S+1 = 1
E1 = -150.62143797814144  Ecoul = 45.44435958108581
cycle= 22 E= -99.9834089332824  delta_E= -5.68e-14  |g|= 4.27e-09  |ddm|= 1.3e-09
    CPU time for cycle= 22      0.10 sec, wall time      0.01 sec
Linear dependence found in DIIS error vectors.
  alpha nocc = 5  HOMO = -0.631031121471186  LUMO = 0.209693698399052
  beta  nocc = 5  HOMO = -0.631031124539726  LUMO = 0.209693698155693
  alpha mo_energy =
[-26.27571497  -1.58960667  -0.73897552  -0.63103112  -0.63103112
   0.2096937    1.11681447   1.48947019   1.48947019   1.5932039
   2.00611371]
  beta  mo_energy =
[-26.27571497  -1.58960668  -0.73897552  -0.63103113  -0.63103112
   0.2096937    1.11681447   1.48947019   1.48947019   1.5932039
   2.00611371]
multiplicity <S^2> = -3.5527137e-15  2S+1 = 1
E1 = -150.6214379781858  Ecoul = 45.44435958113016
cycle= 23 E= -99.9834089332825  delta_E= -2.84e-14  |g|= 3.73e-09  |ddm|= 8.75e-10
    CPU time for cycle= 23      0.12 sec, wall time      0.01 sec
Linear dependence found in DIIS error vectors.
  alpha nocc = 5  HOMO = -0.631031121688241  LUMO = 0.209693698364958
  beta  nocc = 5  HOMO = -0.631031124402578  LUMO = 0.209693698150753
  alpha mo_energy =
[-26.27571497  -1.58960667  -0.73897552  -0.63103112  -0.63103112
   0.2096937    1.11681447   1.48947019   1.48947019   1.5932039
   2.00611371]
  beta  mo_energy =
[-26.27571497  -1.58960668  -0.73897552  -0.63103112  -0.63103112
   0.2096937    1.11681447   1.48947019   1.48947019   1.5932039
   2.00611371]
multiplicity <S^2> = 0  2S+1 = 1
E1 = -150.62143797823427  Ecoul = 45.444359581178716
cycle= 24 E= -99.9834089332824  delta_E= 9.95e-14  |g|= 3.3e-09  |ddm|= 6.93e-10
    CPU time for cycle= 24      0.10 sec, wall time      0.01 sec
Linear dependence found in DIIS error vectors.
  alpha nocc = 5  HOMO = -0.631031121950036  LUMO = 0.209693698345615
  beta  nocc = 5  HOMO = -0.631031124346489  LUMO = 0.209693698157962
  alpha mo_energy =
[-26.27571497  -1.58960667  -0.73897552  -0.63103112  -0.63103112
   0.2096937    1.11681447   1.48947019   1.48947019   1.5932039
   2.00611371]
  beta  mo_energy =
[-26.27571497  -1.58960668  -0.73897552  -0.63103112  -0.63103112
   0.2096937    1.11681447   1.48947019   1.48947019   1.5932039
   2.00611371]
multiplicity <S^2> = -7.1054274e-15  2S+1 = 1
E1 = -150.62143797852428  Ecoul = 45.44435958146867
cycle= 25 E= -99.9834089332824  delta_E= -7.11e-14  |g|= 2.93e-09  |ddm|= 5.91e-10
    CPU time for cycle= 25      0.18 sec, wall time      0.01 sec
Linear dependence found in DIIS error vectors.
  alpha nocc = 5  HOMO = -0.631031122170455  LUMO = 0.209693698331602
  beta  nocc = 5  HOMO = -0.631031124310734  LUMO = 0.209693698163403
  alpha mo_energy =
[-26.27571497  -1.58960668  -0.73897552  -0.63103112  -0.63103112
   0.2096937    1.11681447   1.48947019   1.48947019   1.5932039
   2.00611371]
  beta  mo_energy =
[-26.27571497  -1.58960668  -0.73897552  -0.63103112  -0.63103112
   0.2096937    1.11681447   1.48947019   1.48947019   1.5932039
   2.00611371]
multiplicity <S^2> = -3.5527137e-15  2S+1 = 1
E1 = -150.6214379787618  Ecoul = 45.44435958170618
cycle= 26 E= -99.9834089332824  delta_E=    0  |g|= 2.6e-09  |ddm|= 5.89e-10
    CPU time for cycle= 26      0.20 sec, wall time      0.02 sec
Linear dependence found in DIIS error vectors.
  alpha nocc = 5  HOMO = -0.631031122339308  LUMO = 0.2096936983292
  beta  nocc = 5  HOMO = -0.631031124201803  LUMO = 0.209693698184364
  alpha mo_energy =
[-26.27571497  -1.58960668  -0.73897552  -0.63103112  -0.63103112
   0.2096937    1.11681447   1.48947019   1.48947019   1.5932039
   2.00611371]
  beta  mo_energy =
[-26.27571497  -1.58960668  -0.73897552  -0.63103112  -0.63103112
   0.2096937    1.11681447   1.48947019   1.48947019   1.5932039
   2.00611371]
multiplicity <S^2> = -7.1054274e-15  2S+1 = 1
E1 = -150.6214379784377  Ecoul = 45.444359581382045
cycle= 27 E= -99.9834089332825  delta_E= -4.26e-14  |g|= 2.26e-09  |ddm|= 5.31e-10
    CPU time for cycle= 27      0.11 sec, wall time      0.01 sec
Linear dependence found in DIIS error vectors.
  alpha nocc = 5  HOMO = -0.631031122483215  LUMO = 0.209693698331198
  beta  nocc = 5  HOMO = -0.631031124087144  LUMO = 0.209693698207614
  alpha mo_energy =
[-26.27571497  -1.58960668  -0.73897552  -0.63103112  -0.63103112
   0.2096937    1.11681447   1.48947019   1.48947019   1.5932039
   2.00611371]
  beta  mo_energy =
[-26.27571497  -1.58960668  -0.73897552  -0.63103112  -0.63103112
   0.2096937    1.11681447   1.48947019   1.48947019   1.5932039
   2.00611371]
multiplicity <S^2> = -8.8817842e-16  2S+1 = 1
E1 = -150.62143797804396  Ecoul = 45.44435958098828
cycle= 28 E= -99.9834089332825  delta_E= -1.42e-14  |g|= 1.94e-09  |ddm|= 5.07e-10
    CPU time for cycle= 28      0.10 sec, wall time      0.01 sec
Linear dependence found in DIIS error vectors.
  alpha nocc = 5  HOMO = -0.631031122650904  LUMO = 0.209693698331591
  beta  nocc = 5  HOMO = -0.631031123998038  LUMO = 0.209693698228355
  alpha mo_energy =
[-26.27571497  -1.58960668  -0.73897552  -0.63103112  -0.63103112
   0.2096937    1.11681447   1.48947019   1.48947019   1.5932039
   2.00611371]
  beta  mo_energy =
[-26.27571497  -1.58960668  -0.73897552  -0.63103112  -0.63103112
   0.2096937    1.11681447   1.48947019   1.48947019   1.5932039
   2.00611371]
multiplicity <S^2> = 5.3290705e-15  2S+1 = 1
E1 = -150.62143797779447  Ecoul = 45.44435958073886
cycle= 29 E= -99.9834089332824  delta_E= 7.11e-14  |g|= 1.62e-09  |ddm|= 5.42e-10
    CPU time for cycle= 29      0.16 sec, wall time      0.01 sec
Linear dependence found in DIIS error vectors.
  alpha nocc = 5  HOMO = -0.631031122763992  LUMO = 0.209693698324966
  beta  nocc = 5  HOMO = -0.631031123933849  LUMO = 0.209693698235767
  alpha mo_energy =
[-26.27571497  -1.58960668  -0.73897552  -0.63103112  -0.63103112
   0.2096937    1.11681447   1.48947019   1.48947019   1.5932039
   2.00611371]
  beta  mo_energy =
[-26.27571497  -1.58960668  -0.73897552  -0.63103112  -0.63103112
   0.2096937    1.11681447   1.48947019   1.48947019   1.5932039
   2.00611371]
multiplicity <S^2> = 4.4408921e-15  2S+1 = 1
E1 = -150.62143797780374  Ecoul = 45.444359580748134
cycle= 30 E= -99.9834089332824  delta_E= 1.42e-14  |g|= 1.41e-09  |ddm|= 3.46e-10
    CPU time for cycle= 30      0.11 sec, wall time      0.01 sec
Linear dependence found in DIIS error vectors.
  alpha nocc = 5  HOMO = -0.631031122858342  LUMO = 0.209693698320192
  beta  nocc = 5  HOMO = -0.631031123880296  LUMO = 0.209693698242654
  alpha mo_energy =
[-26.27571497  -1.58960668  -0.73897552  -0.63103112  -0.63103112
   0.2096937    1.11681447   1.48947019   1.48947019   1.5932039
   2.00611371]
  beta  mo_energy =
[-26.27571497  -1.58960668  -0.73897552  -0.63103112  -0.63103112
   0.2096937    1.11681447   1.48947019   1.48947019   1.5932039
   2.00611371]
multiplicity <S^2> = -1.7763568e-15  2S+1 = 1
E1 = -150.6214379778111  Ecoul = 45.444359580755474
cycle= 31 E= -99.9834089332824  delta_E= -2.84e-14  |g|= 1.23e-09  |ddm|= 2.88e-10
    CPU time for cycle= 31      0.10 sec, wall time      0.01 sec
Linear dependence found in DIIS error vectors.
  alpha nocc = 5  HOMO = -0.63103112294182  LUMO = 0.209693698316791
  beta  nocc = 5  HOMO = -0.631031123834531  LUMO = 0.209693698249416
  alpha mo_energy =
[-26.27571497  -1.58960668  -0.73897552  -0.63103112  -0.63103112
   0.2096937    1.11681447   1.48947019   1.48947019   1.5932039
   2.00611371]
  beta  mo_energy =
[-26.27571497  -1.58960668  -0.73897552  -0.63103112  -0.63103112
   0.2096937    1.11681447   1.48947019   1.48947019   1.5932039
   2.00611371]
multiplicity <S^2> = -8.8817842e-16  2S+1 = 1
E1 = -150.62143797781707  Ecoul = 45.444359580761486
cycle= 32 E= -99.9834089332824  delta_E= 4.26e-14  |g|= 1.08e-09  |ddm|= 2.52e-10
    CPU time for cycle= 32      0.29 sec, wall time      0.02 sec
Linear dependence found in DIIS error vectors.
  alpha nocc = 5  HOMO = -0.631031123017442  LUMO = 0.209693698314539
  beta  nocc = 5  HOMO = -0.631031123795163  LUMO = 0.20969369825616
  alpha mo_energy =
[-26.27571497  -1.58960668  -0.73897552  -0.63103112  -0.63103112
   0.2096937    1.11681447   1.48947019   1.48947019   1.5932039
   2.00611371]
  beta  mo_energy =
[-26.27571497  -1.58960668  -0.73897552  -0.63103112  -0.63103112
   0.2096937    1.11681447   1.48947019   1.48947019   1.5932039
   2.00611371]
multiplicity <S^2> = -3.5527137e-15  2S+1 = 1
E1 = -150.62143797782232  Ecoul = 45.44435958076662
cycle= 33 E= -99.9834089332825  delta_E= -1.28e-13  |g|= 9.44e-10  |ddm|= 2.25e-10
    CPU time for cycle= 33      0.36 sec, wall time      0.03 sec
Linear dependence found in DIIS error vectors.
  alpha nocc = 5  HOMO = -0.631031123087441  LUMO = 0.209693698312241
  beta  nocc = 5  HOMO = -0.631031123763332  LUMO = 0.209693698261731
  alpha mo_energy =
[-26.27571497  -1.58960668  -0.73897552  -0.63103112  -0.63103112
   0.2096937    1.11681447   1.48947019   1.48947019   1.5932039
   2.00611371]
  beta  mo_energy =
[-26.27571497  -1.58960668  -0.73897552  -0.63103112  -0.63103112
   0.2096937    1.11681447   1.48947019   1.48947019   1.5932039
   2.00611371]
multiplicity <S^2> = -8.8817842e-16  2S+1 = 1
E1 = -150.62143797784955  Ecoul = 45.44435958079397
cycle= 34 E= -99.9834089332824  delta_E= 1.28e-13  |g|= 8.21e-10  |ddm|= 2.04e-10
    CPU time for cycle= 34      0.36 sec, wall time      0.03 sec
Linear dependence found in DIIS error vectors.
  alpha nocc = 5  HOMO = -0.631031123153108  LUMO = 0.209693698309754
  beta  nocc = 5  HOMO = -0.631031123736528  LUMO = 0.209693698266471
  alpha mo_energy =
[-26.27571497  -1.58960668  -0.73897552  -0.63103112  -0.63103112
   0.2096937    1.11681447   1.48947019   1.48947019   1.5932039
   2.00611371]
  beta  mo_energy =
[-26.27571497  -1.58960668  -0.73897552  -0.63103112  -0.63103112
   0.2096937    1.11681447   1.48947019   1.48947019   1.5932039
   2.00611371]
multiplicity <S^2> = -7.1054274e-15  2S+1 = 1
E1 = -150.6214379778943  Ecoul = 45.444359580838615
cycle= 35 E= -99.9834089332825  delta_E= -9.95e-14  |g|= 7.12e-10  |ddm|= 1.8e-10
    CPU time for cycle= 35      0.37 sec, wall time      0.03 sec
Linear dependence found in DIIS error vectors.
  alpha nocc = 5  HOMO = -0.631031123207317  LUMO = 0.209693698307858
  beta  nocc = 5  HOMO = -0.631031123710254  LUMO = 0.209693698270788
  alpha mo_energy =
[-26.27571497  -1.58960668  -0.73897552  -0.63103112  -0.63103112
   0.2096937    1.11681447   1.48947019   1.48947019   1.5932039
   2.00611371]
  beta  mo_energy =
[-26.27571497  -1.58960668  -0.73897552  -0.63103112  -0.63103112
   0.2096937    1.11681447   1.48947019   1.48947019   1.5932039
   2.00611371]
multiplicity <S^2> = -1.7763568e-15  2S+1 = 1
E1 = -150.62143797791708  Ecoul = 45.44435958086146
cycle= 36 E= -99.9834089332824  delta_E= 5.68e-14  |g|= 6.16e-10  |ddm|= 1.6e-10
    CPU time for cycle= 36      0.36 sec, wall time      0.03 sec
Linear dependence found in DIIS error vectors.
  alpha nocc = 5  HOMO = -0.631031123249995  LUMO = 0.209693698306508
  beta  nocc = 5  HOMO = -0.631031123683821  LUMO = 0.209693698274708
  alpha mo_energy =
[-26.27571497  -1.58960668  -0.73897552  -0.63103112  -0.63103112
   0.2096937    1.11681447   1.48947019   1.48947019   1.5932039
   2.00611371]
  beta  mo_energy =
[-26.27571497  -1.58960668  -0.73897552  -0.63103112  -0.63103112
   0.2096937    1.11681447   1.48947019   1.48947019   1.5932039
   2.00611371]
multiplicity <S^2> = -3.5527137e-15  2S+1 = 1
E1 = -150.62143797791526  Ecoul = 45.44435958085973
cycle= 37 E= -99.9834089332824  delta_E= 8.53e-14  |g|= 5.33e-10  |ddm|= 1.39e-10
    CPU time for cycle= 37      0.43 sec, wall time      0.03 sec
Linear dependence found in DIIS error vectors.
  alpha nocc = 5  HOMO = -0.631031123282268  LUMO = 0.209693698305427
  beta  nocc = 5  HOMO = -0.631031123658712  LUMO = 0.209693698278004
  alpha mo_energy =
[-26.27571497  -1.58960668  -0.73897552  -0.63103112  -0.63103112
   0.2096937    1.11681447   1.48947019   1.48947019   1.5932039
   2.00611371]
  beta  mo_energy =
[-26.27571497  -1.58960668  -0.73897552  -0.63103112  -0.63103112
   0.2096937    1.11681447   1.48947019   1.48947019   1.5932039
   2.00611371]
multiplicity <S^2> = -5.3290705e-15  2S+1 = 1
E1 = -150.6214379779007  Ecoul = 45.44435958084507
cycle= 38 E= -99.9834089332825  delta_E= -1.14e-13  |g|= 4.65e-10  |ddm|= 1.14e-10
    CPU time for cycle= 38      0.44 sec, wall time      0.04 sec
Linear dependence found in DIIS error vectors.
  alpha nocc = 5  HOMO = -0.631031123310254  LUMO = 0.209693698304564
  beta  nocc = 5  HOMO = -0.63103112363689  LUMO = 0.209693698280926
  alpha mo_energy =
[-26.27571497  -1.58960668  -0.73897552  -0.63103112  -0.63103112
   0.2096937    1.11681447   1.48947019   1.48947019   1.5932039
   2.00611371]
  beta  mo_energy =
[-26.27571497  -1.58960668  -0.73897552  -0.63103112  -0.63103112
   0.2096937    1.11681447   1.48947019   1.48947019   1.5932039
   2.00611371]
multiplicity <S^2> = 0  2S+1 = 1
E1 = -150.62143797788787  Ecoul = 45.44435958083224
cycle= 39 E= -99.9834089332824  delta_E= 2.84e-14  |g|= 4.05e-10  |ddm|= 9.97e-11
    CPU time for cycle= 39      0.33 sec, wall time      0.03 sec
Linear dependence found in DIIS error vectors.
  alpha nocc = 5  HOMO = -0.631031123334757  LUMO = 0.209693698303853
  beta  nocc = 5  HOMO = -0.631031123617777  LUMO = 0.209693698283505
  alpha mo_energy =
[-26.27571497  -1.58960668  -0.73897552  -0.63103112  -0.63103112
   0.2096937    1.11681447   1.48947019   1.48947019   1.5932039
   2.00611371]
  beta  mo_energy =
[-26.27571497  -1.58960668  -0.73897552  -0.63103112  -0.63103112
   0.2096937    1.11681447   1.48947019   1.48947019   1.5932039
   2.00611371]
multiplicity <S^2> = -2.6645353e-15  2S+1 = 1
E1 = -150.62143797787695  Ecoul = 45.444359580821356
cycle= 40 E= -99.9834089332824  delta_E= 2.84e-14  |g|= 3.53e-10  |ddm|= 8.78e-11
    CPU time for cycle= 40      0.39 sec, wall time      0.03 sec
Linear dependence found in DIIS error vectors.
  alpha nocc = 5  HOMO = -0.631031123356187  LUMO = 0.20969369830324
  beta  nocc = 5  HOMO = -0.631031123601008  LUMO = 0.209693698285771
  alpha mo_energy =
[-26.27571497  -1.58960668  -0.73897552  -0.63103112  -0.63103112
   0.2096937    1.11681447   1.48947019   1.48947019   1.5932039
   2.00611371]
  beta  mo_energy =
[-26.27571497  -1.58960668  -0.73897552  -0.63103112  -0.63103112
   0.2096937    1.11681447   1.48947019   1.48947019   1.5932039
   2.00611371]
multiplicity <S^2> = -2.6645353e-15  2S+1 = 1
E1 = -150.6214379778678  Ecoul = 45.4443595808122
cycle= 41 E= -99.9834089332824  delta_E=    0  |g|= 3.08e-10  |ddm|= 7.75e-11
    CPU time for cycle= 41      0.37 sec, wall time      0.03 sec
Linear dependence found in DIIS error vectors.
  alpha nocc = 5  HOMO = -0.631031123374826  LUMO = 0.209693698302673
  beta  nocc = 5  HOMO = -0.631031123586298  LUMO = 0.209693698287702
  alpha mo_energy =
[-26.27571497  -1.58960668  -0.73897552  -0.63103112  -0.63103112
   0.2096937    1.11681447   1.48947019   1.48947019   1.5932039
   2.00611371]
  beta  mo_energy =
[-26.27571497  -1.58960668  -0.73897552  -0.63103112  -0.63103112
   0.2096937    1.11681447   1.48947019   1.48947019   1.5932039
   2.00611371]
multiplicity <S^2> = -1.7763568e-15  2S+1 = 1
E1 = -150.62143797786055  Ecoul = 45.444359580804914
cycle= 42 E= -99.9834089332825  delta_E= -4.26e-14  |g|= 2.68e-10  |ddm|= 6.83e-11
    CPU time for cycle= 42      0.40 sec, wall time      0.03 sec
Linear dependence found in DIIS error vectors.
  alpha nocc = 5  HOMO = -0.631031123391193  LUMO = 0.209693698302118
  beta  nocc = 5  HOMO = -0.631031123573617  LUMO = 0.209693698289312
  alpha mo_energy =
[-26.27571497  -1.58960668  -0.73897552  -0.63103112  -0.63103112
   0.2096937    1.11681447   1.48947019   1.48947019   1.5932039
   2.00611371]
  beta  mo_energy =
[-26.27571497  -1.58960668  -0.73897552  -0.63103112  -0.63103112
   0.2096937    1.11681447   1.48947019   1.48947019   1.5932039
   2.00611371]
multiplicity <S^2> = -2.6645353e-15  2S+1 = 1
E1 = -150.6214379778564  Ecoul = 45.44435958080077
cycle= 43 E= -99.9834089332824  delta_E= 1.42e-14  |g|= 2.33e-10  |ddm|= 5.96e-11
    CPU time for cycle= 43      0.27 sec, wall time      0.02 sec
Linear dependence found in DIIS error vectors.
  alpha nocc = 5  HOMO = -0.631031123405613  LUMO = 0.209693698301551
  beta  nocc = 5  HOMO = -0.631031123563008  LUMO = 0.209693698290603
  alpha mo_energy =
[-26.27571497  -1.58960668  -0.73897552  -0.63103112  -0.63103112
   0.2096937    1.11681447   1.48947019   1.48947019   1.5932039
   2.00611371]
  beta  mo_energy =
[-26.27571497  -1.58960668  -0.73897552  -0.63103112  -0.63103112
   0.2096937    1.11681447   1.48947019   1.48947019   1.5932039
   2.00611371]
multiplicity <S^2> = -3.5527137e-15  2S+1 = 1
E1 = -150.62143797785635  Ecoul = 45.44435958080072
cycle= 44 E= -99.9834089332824  delta_E=    0  |g|= 2.03e-10  |ddm|= 5.21e-11
    CPU time for cycle= 44      0.11 sec, wall time      0.01 sec
Linear dependence found in DIIS error vectors.
  alpha nocc = 5  HOMO = -0.631031123418186  LUMO = 0.209693698301006
  beta  nocc = 5  HOMO = -0.631031123554023  LUMO = 0.209693698291642
  alpha mo_energy =
[-26.27571497  -1.58960668  -0.73897552  -0.63103112  -0.63103112
   0.2096937    1.11681447   1.48947019   1.48947019   1.5932039
   2.00611371]
  beta  mo_energy =
[-26.27571497  -1.58960668  -0.73897552  -0.63103112  -0.63103112
   0.2096937    1.11681447   1.48947019   1.48947019   1.5932039
   2.00611371]
multiplicity <S^2> = 0  2S+1 = 1
E1 = -150.62143797785836  Ecoul = 45.44435958080274
cycle= 45 E= -99.9834089332824  delta_E=    0  |g|= 1.77e-10  |ddm|= 4.53e-11
    CPU time for cycle= 45      0.15 sec, wall time      0.01 sec
Linear dependence found in DIIS error vectors.
  alpha nocc = 5  HOMO = -0.63103112342897  LUMO = 0.209693698300518
  beta  nocc = 5  HOMO = -0.63103112354626  LUMO = 0.209693698292518
  alpha mo_energy =
[-26.27571497  -1.58960668  -0.73897552  -0.63103112  -0.63103112
   0.2096937    1.11681447   1.48947019   1.48947019   1.5932039
   2.00611371]
  beta  mo_energy =
[-26.27571497  -1.58960668  -0.73897552  -0.63103112  -0.63103112
   0.2096937    1.11681447   1.48947019   1.48947019   1.5932039
   2.00611371]
multiplicity <S^2> = 2.6645353e-15  2S+1 = 1
E1 = -150.62143797786047  Ecoul = 45.444359580804914
cycle= 46 E= -99.9834089332824  delta_E= 7.11e-14  |g|= 1.54e-10  |ddm|= 3.93e-11
    CPU time for cycle= 46      0.57 sec, wall time      0.04 sec
Linear dependence found in DIIS error vectors.
  alpha nocc = 5  HOMO = -0.631031123438212  LUMO = 0.209693698300111
  beta  nocc = 5  HOMO = -0.631031123539383  LUMO = 0.209693698293284
  alpha mo_energy =
[-26.27571497  -1.58960668  -0.73897552  -0.63103112  -0.63103112
   0.2096937    1.11681447   1.48947019   1.48947019   1.5932039
   2.00611371]
  beta  mo_energy =
[-26.27571497  -1.58960668  -0.73897552  -0.63103112  -0.63103112
   0.2096937    1.11681447   1.48947019   1.48947019   1.5932039
   2.00611371]
multiplicity <S^2> = 0  2S+1 = 1
E1 = -150.62143797786177  Ecoul = 45.444359580806186
cycle= 47 E= -99.9834089332824  delta_E= -4.26e-14  |g|= 1.35e-10  |ddm|= 3.45e-11
    CPU time for cycle= 47      0.35 sec, wall time      0.02 sec
Linear dependence found in DIIS error vectors.
  alpha nocc = 5  HOMO = -0.631031123446133  LUMO = 0.209693698299765
  beta  nocc = 5  HOMO = -0.631031123533293  LUMO = 0.209693698293958
  alpha mo_energy =
[-26.27571497  -1.58960668  -0.73897552  -0.63103112  -0.63103112
   0.2096937    1.11681447   1.48947019   1.48947019   1.5932039
   2.00611371]
  beta  mo_energy =
[-26.27571497  -1.58960668  -0.73897552  -0.63103112  -0.63103112
   0.2096937    1.11681447   1.48947019   1.48947019   1.5932039
   2.00611371]
multiplicity <S^2> = 0  2S+1 = 1
E1 = -150.62143797786234  Ecoul = 45.444359580806704
cycle= 48 E= -99.9834089332825  delta_E= -4.26e-14  |g|= 1.18e-10  |ddm|= 3.04e-11
    CPU time for cycle= 48      0.12 sec, wall time      0.01 sec
Linear dependence found in DIIS error vectors.
  alpha nocc = 5  HOMO = -0.631031123452899  LUMO = 0.209693698299473
  beta  nocc = 5  HOMO = -0.631031123527915  LUMO = 0.209693698294537
  alpha mo_energy =
[-26.27571497  -1.58960668  -0.73897552  -0.63103112  -0.63103112
   0.2096937    1.11681447   1.48947019   1.48947019   1.5932039
   2.00611371]
  beta  mo_energy =
[-26.27571497  -1.58960668  -0.73897552  -0.63103112  -0.63103112
   0.2096937    1.11681447   1.48947019   1.48947019   1.5932039
   2.00611371]
multiplicity <S^2> = -8.8817842e-16  2S+1 = 1
E1 = -150.62143797786229  Ecoul = 45.44435958080665
cycle= 49 E= -99.9834089332825  delta_E=    0  |g|= 1.03e-10  |ddm|= 2.67e-11
    CPU time for cycle= 49      0.11 sec, wall time      0.01 sec
Linear dependence found in DIIS error vectors.
  alpha nocc = 5  HOMO = -0.631031123458662  LUMO = 0.209693698299225
  beta  nocc = 5  HOMO = -0.631031123523162  LUMO = 0.209693698295039
  alpha mo_energy =
[-26.27571497  -1.58960668  -0.73897552  -0.63103112  -0.63103112
   0.2096937    1.11681447   1.48947019   1.48947019   1.5932039
   2.00611371]
  beta  mo_energy =
[-26.27571497  -1.58960668  -0.73897552  -0.63103112  -0.63103112
   0.2096937    1.11681447   1.48947019   1.48947019   1.5932039
   2.00611371]
multiplicity <S^2> = -8.8817842e-16  2S+1 = 1
E1 = -150.62143797786172  Ecoul = 45.44435958080614
cycle= 50 E= -99.9834089332824  delta_E= 7.11e-14  |g|= 8.98e-11  |ddm|= 2.35e-11
    CPU time for cycle= 50      0.22 sec, wall time      0.02 sec
  alpha nocc = 5  HOMO = -0.631031123476779  LUMO = 0.20969369829844
  beta  nocc = 5  HOMO = -0.63103112350727  LUMO = 0.209693698296653
  alpha mo_energy =
[-26.27571497  -1.58960668  -0.73897552  -0.63103112  -0.63103112
   0.2096937    1.11681447   1.48947019   1.48947019   1.5932039
   2.00611371]
  beta  mo_energy =
[-26.27571497  -1.58960668  -0.73897552  -0.63103112  -0.63103112
   0.2096937    1.11681447   1.48947019   1.48947019   1.5932039
   2.00611371]
multiplicity <S^2> = 1.7763568e-15  2S+1 = 1
E1 = -150.6214379778582  Ecoul = 45.44435958080254
Extra cycle  E= -99.9834089332825  delta_E= -8.53e-14  |g|= 4.74e-11  |ddm|= 7.89e-11
    CPU time for scf_cycle     16.33 sec, wall time      1.24 sec
    CPU time for SCF     16.33 sec, wall time      1.24 sec
converged SCF energy = -99.9834089332825  <S^2> = 1.7763568e-15  2S+1 = 1
loop example
davidson 0 1  |r|= 2.34  e= [2.32879003]  max|de|= 2.33  lindep= 0.596
davidson 1 2  |r|= 0.91  e= [1.2637348]  max|de|= -1.07  lindep= 0.803
davidson 2 3  |r|= 0.455  e= [1.04600307]  max|de|= -0.218  lindep= 0.863
davidson 3 4  |r|= 0.416  e= [0.91565175]  max|de|= -0.13  lindep= 0.918
davidson 4 5  |r|= 0.148  e= [0.89744461]  max|de|= -0.0182  lindep= 0.884
davidson 5 6  |r|= 0.129  e= [0.89454735]  max|de|= -0.0029  lindep= 0.592
davidson 6 7  |r|= 0.439  e= [0.77789415]  max|de|= -0.117  lindep= 0.622
davidson 7 8  |r|= 0.0393  e= [0.75821849]  max|de|= -0.0197  lindep= 0.802
davidson 8 9  |r|= 0.00765  e= [0.75784023]  max|de|= -0.000378  lindep= 0.965
root 0 converged  |r|= 0.00219  e= 0.7578360282189751  max|de|= -4.2e-06
converged 9 10  |r|= 0.00219  e= [0.75783603]  max|de|= -4.2e-06
<class 'pyscf.scf.uhf.UHF'> wavefunction is stable in the internal stability analysis
(11, 11)
(2, 11, 11)
mo energy: (11,)
total 2e- integral energy: 45.444359580802534
(11, 11, 11, 11)
final rhf/uhf energy: -99.98340893328245
moE: [-26.27571497  -1.58960668  -0.73897552  -0.63103112  -0.63103112
   0.2096937    1.11681447   1.48947019   1.48947019   1.5932039
   2.00611371] [-26.27571497  -1.58960668  -0.73897552  -0.63103112  -0.63103112
   0.2096937    1.11681447   1.48947019   1.48947019   1.5932039
   2.00611371]
slice(None, 5, None) slice(5, None, None)
eabij_aa: [[[[-0.01887832 -0.03535479 -0.03645102 -0.03659501 -0.03659501]
   [-0.03535479 -0.27788579 -0.36390505 -0.37878426 -0.37878426]
   [-0.03645102 -0.36390505 -0.5270541  -0.5588484  -0.5588484 ]
   [-0.03659501 -0.37878426 -0.5588484  -0.59472492 -0.59472492]
   [-0.03659501 -0.37878426 -0.5588484  -0.59472492 -0.59472492]]

  [[-0.01856047 -0.03425616 -0.03528432 -0.03541923 -0.03541923]
   [-0.03425616 -0.22194004 -0.27359105 -0.28191679 -0.28191679]
   [-0.03528432 -0.27359105 -0.35657499 -0.37084907 -0.37084907]
   [-0.03541923 -0.28191679 -0.37084907 -0.38631362 -0.38631362]
   [-0.03541923 -0.28191679 -0.37084907 -0.38631362 -0.38631362]]

  [[-0.01843298 -0.03382437 -0.03482639 -0.03495781 -0.03495781]
   [-0.03382437 -0.2049862  -0.24827782 -0.25511495 -0.25511495]
   [-0.03482639 -0.24827782 -0.31475097 -0.32582093 -0.32582093]
   [-0.03495781 -0.25511495 -0.32582093 -0.33769795 -0.33769795]
   [-0.03495781 -0.25511495 -0.32582093 -0.33769795 -0.33769795]]

  [[-0.01843298 -0.03382437 -0.03482639 -0.03495781 -0.03495781]
   [-0.03382437 -0.2049862  -0.24827782 -0.25511495 -0.25511495]
   [-0.03482639 -0.24827782 -0.31475097 -0.32582093 -0.32582093]
   [-0.03495781 -0.25511495 -0.32582093 -0.33769795 -0.33769795]
   [-0.03495781 -0.25511495 -0.32582093 -0.33769795 -0.33769795]]

  [[-0.0183978  -0.0337061  -0.03470103 -0.0348315  -0.0348315 ]
   [-0.0337061  -0.20071813 -0.24204403 -0.24853764 -0.24853764]
   [-0.03470103 -0.24204403 -0.30479919 -0.31516867 -0.31516867]
   [-0.0348315  -0.24853764 -0.31516867 -0.32626855 -0.32626855]
   [-0.0348315  -0.24853764 -0.31516867 -0.32626855 -0.32626855]]

  [[-0.01825909 -0.03324343 -0.03421084 -0.03433765 -0.03433765]
   [-0.03324343 -0.1853561  -0.22005156 -0.22540569 -0.22540569]
   [-0.03421084 -0.22005156 -0.27072696 -0.2788767  -0.2788767 ]
   [-0.03433765 -0.22540569 -0.2788767  -0.28753234 -0.28753234]
   [-0.03433765 -0.22540569 -0.2788767  -0.28753234 -0.28753234]]]


 [[[-0.01856047 -0.03425616 -0.03528432 -0.03541923 -0.03541923]
   [-0.03425616 -0.22194004 -0.27359105 -0.28191679 -0.28191679]
   [-0.03528432 -0.27359105 -0.35657499 -0.37084907 -0.37084907]
   [-0.03541923 -0.28191679 -0.37084907 -0.38631362 -0.38631362]
   [-0.03541923 -0.28191679 -0.37084907 -0.38631362 -0.38631362]]

  [[-0.01825315 -0.03322375 -0.03419    -0.03431665 -0.03431665]
   [-0.03322375 -0.18474582 -0.21919196 -0.22450384 -0.22450384]
   [-0.03419    -0.21919196 -0.26942704 -0.27749754 -0.27749754]
   [-0.03431665 -0.22450384 -0.27749754 -0.28606646 -0.28606646]
   [-0.03431665 -0.22450384 -0.27749754 -0.28606646 -0.28606646]]

  [[-0.01812983 -0.03281744 -0.03375986 -0.03388334 -0.03388334]
   [-0.03281744 -0.17284597 -0.20263971 -0.20717134 -0.20717134]
   [-0.03375986 -0.20263971 -0.24484385 -0.25149063 -0.25149063]
   [-0.03388334 -0.20717134 -0.25149063 -0.25850836 -0.25850836]
   [-0.03388334 -0.20717134 -0.25149063 -0.25850836 -0.25850836]]

  [[-0.01812983 -0.03281744 -0.03375986 -0.03388334 -0.03388334]
   [-0.03281744 -0.17284597 -0.20263971 -0.20717134 -0.20717134]
   [-0.03375986 -0.20263971 -0.24484385 -0.25149063 -0.25149063]
   [-0.03388334 -0.20717134 -0.25149063 -0.25850836 -0.25850836]
   [-0.03388334 -0.20717134 -0.25149063 -0.25850836 -0.25850836]]

  [[-0.0180958  -0.0327061  -0.03364205 -0.03376466 -0.03376466]
   [-0.0327061  -0.16980144 -0.19846781 -0.20281276 -0.20281276]
   [-0.03364205 -0.19846781 -0.2387792  -0.24509654 -0.24509654]
   [-0.03376466 -0.20281276 -0.24509654 -0.25175723 -0.25175723]
   [-0.03376466 -0.20281276 -0.24509654 -0.25175723 -0.25175723]]

  [[-0.01796159 -0.0322703  -0.03318112 -0.03330039 -0.03330039]
   [-0.0322703  -0.15867622 -0.1834354  -0.18714095 -0.18714095]
   [-0.03318112 -0.1834354  -0.21734976 -0.22257167 -0.22257167]
   [-0.03330039 -0.18714095 -0.22257167 -0.22805067 -0.22805067]
   [-0.03330039 -0.18714095 -0.22257167 -0.22805067 -0.22805067]]]


 [[[-0.01843298 -0.03382437 -0.03482639 -0.03495781 -0.03495781]
   [-0.03382437 -0.2049862  -0.24827782 -0.25511495 -0.25511495]
   [-0.03482639 -0.24827782 -0.31475097 -0.32582093 -0.32582093]
   [-0.03495781 -0.25511495 -0.32582093 -0.33769795 -0.33769795]
   [-0.03495781 -0.25511495 -0.32582093 -0.33769795 -0.33769795]]

  [[-0.01812983 -0.03281744 -0.03375986 -0.03388334 -0.03388334]
   [-0.03281744 -0.17284597 -0.20263971 -0.20717134 -0.20717134]
   [-0.03375986 -0.20263971 -0.24484385 -0.25149063 -0.25149063]
   [-0.03388334 -0.20717134 -0.25149063 -0.25850836 -0.25850836]
   [-0.03388334 -0.20717134 -0.25149063 -0.25850836 -0.25850836]]

  [[-0.01800816 -0.03242094 -0.03334041 -0.03346083 -0.03346083]
   [-0.03242094 -0.16238633 -0.18841182 -0.19232329 -0.19232329]
   [-0.03334041 -0.18841182 -0.22437163 -0.22994072 -0.22994072]
   [-0.03346083 -0.19232329 -0.22994072 -0.2357933  -0.2357933 ]
   [-0.03346083 -0.19232329 -0.22994072 -0.2357933  -0.2357933 ]]

  [[-0.01800816 -0.03242094 -0.03334041 -0.03346083 -0.03346083]
   [-0.03242094 -0.16238633 -0.18841182 -0.19232329 -0.19232329]
   [-0.03334041 -0.18841182 -0.22437163 -0.22994072 -0.22994072]
   [-0.03346083 -0.19232329 -0.22994072 -0.2357933  -0.2357933 ]
   [-0.03346083 -0.19232329 -0.22994072 -0.2357933  -0.2357933 ]]

  [[-0.01797459 -0.03231227 -0.0332255  -0.03334509 -0.03334509]
   [-0.03231227 -0.15969626 -0.18479997 -0.18856142 -0.18856142]
   [-0.0332255  -0.18479997 -0.21926819 -0.22458381 -0.22458381]
   [-0.03334509 -0.18856142 -0.22458381 -0.23016356 -0.23016356]
   [-0.03334509 -0.18856142 -0.22458381 -0.23016356 -0.23016356]]

  [[-0.01784216 -0.03188683 -0.03277584 -0.03289222 -0.03289222]
   [-0.03188683 -0.14981728 -0.1716984  -0.17494073 -0.17494073]
   [-0.03277584 -0.1716984  -0.20106424 -0.2055249  -0.2055249 ]
   [-0.03289222 -0.17494073 -0.2055249  -0.21018797 -0.21018797]
   [-0.03289222 -0.17494073 -0.2055249  -0.21018797 -0.21018797]]]


 [[[-0.01843298 -0.03382437 -0.03482639 -0.03495781 -0.03495781]
   [-0.03382437 -0.2049862  -0.24827782 -0.25511495 -0.25511495]
   [-0.03482639 -0.24827782 -0.31475097 -0.32582093 -0.32582093]
   [-0.03495781 -0.25511495 -0.32582093 -0.33769795 -0.33769795]
   [-0.03495781 -0.25511495 -0.32582093 -0.33769795 -0.33769795]]

  [[-0.01812983 -0.03281744 -0.03375986 -0.03388334 -0.03388334]
   [-0.03281744 -0.17284597 -0.20263971 -0.20717134 -0.20717134]
   [-0.03375986 -0.20263971 -0.24484385 -0.25149063 -0.25149063]
   [-0.03388334 -0.20717134 -0.25149063 -0.25850836 -0.25850836]
   [-0.03388334 -0.20717134 -0.25149063 -0.25850836 -0.25850836]]

  [[-0.01800816 -0.03242094 -0.03334041 -0.03346083 -0.03346083]
   [-0.03242094 -0.16238633 -0.18841182 -0.19232329 -0.19232329]
   [-0.03334041 -0.18841182 -0.22437163 -0.22994072 -0.22994072]
   [-0.03346083 -0.19232329 -0.22994072 -0.2357933  -0.2357933 ]
   [-0.03346083 -0.19232329 -0.22994072 -0.2357933  -0.2357933 ]]

  [[-0.01800816 -0.03242094 -0.03334041 -0.03346083 -0.03346083]
   [-0.03242094 -0.16238633 -0.18841182 -0.19232329 -0.19232329]
   [-0.03334041 -0.18841182 -0.22437163 -0.22994072 -0.22994072]
   [-0.03346083 -0.19232329 -0.22994072 -0.2357933  -0.2357933 ]
   [-0.03346083 -0.19232329 -0.22994072 -0.2357933  -0.2357933 ]]

  [[-0.01797459 -0.03231227 -0.0332255  -0.03334509 -0.03334509]
   [-0.03231227 -0.15969626 -0.18479997 -0.18856142 -0.18856142]
   [-0.0332255  -0.18479997 -0.21926819 -0.22458381 -0.22458381]
   [-0.03334509 -0.18856142 -0.22458381 -0.23016356 -0.23016356]
   [-0.03334509 -0.18856142 -0.22458381 -0.23016356 -0.23016356]]

  [[-0.01784216 -0.03188683 -0.03277584 -0.03289222 -0.03289222]
   [-0.03188683 -0.14981728 -0.1716984  -0.17494073 -0.17494073]
   [-0.03277584 -0.1716984  -0.20106424 -0.2055249  -0.2055249 ]
   [-0.03289222 -0.17494073 -0.2055249  -0.21018797 -0.21018797]
   [-0.03289222 -0.17494073 -0.2055249  -0.21018797 -0.21018797]]]


 [[[-0.0183978  -0.0337061  -0.03470103 -0.0348315  -0.0348315 ]
   [-0.0337061  -0.20071813 -0.24204403 -0.24853764 -0.24853764]
   [-0.03470103 -0.24204403 -0.30479919 -0.31516867 -0.31516867]
   [-0.0348315  -0.24853764 -0.31516867 -0.32626855 -0.32626855]
   [-0.0348315  -0.24853764 -0.31516867 -0.32626855 -0.32626855]]

  [[-0.0180958  -0.0327061  -0.03364205 -0.03376466 -0.03376466]
   [-0.0327061  -0.16980144 -0.19846781 -0.20281276 -0.20281276]
   [-0.03364205 -0.19846781 -0.2387792  -0.24509654 -0.24509654]
   [-0.03376466 -0.20281276 -0.24509654 -0.25175723 -0.25175723]
   [-0.03376466 -0.20281276 -0.24509654 -0.25175723 -0.25175723]]

  [[-0.01797459 -0.03231227 -0.0332255  -0.03334509 -0.03334509]
   [-0.03231227 -0.15969626 -0.18479997 -0.18856142 -0.18856142]
   [-0.0332255  -0.18479997 -0.21926819 -0.22458381 -0.22458381]
   [-0.03334509 -0.18856142 -0.22458381 -0.23016356 -0.23016356]
   [-0.03334509 -0.18856142 -0.22458381 -0.23016356 -0.23016356]]

  [[-0.01797459 -0.03231227 -0.0332255  -0.03334509 -0.03334509]
   [-0.03231227 -0.15969626 -0.18479997 -0.18856142 -0.18856142]
   [-0.0332255  -0.18479997 -0.21926819 -0.22458381 -0.22458381]
   [-0.03334509 -0.18856142 -0.22458381 -0.23016356 -0.23016356]
   [-0.03334509 -0.18856142 -0.22458381 -0.23016356 -0.23016356]]

  [[-0.01794113 -0.03220433 -0.03311138 -0.03323015 -0.03323015]
   [-0.03220433 -0.15709386 -0.18132399 -0.18494388 -0.18494388]
   [-0.03311138 -0.18132399 -0.21439174 -0.21947082 -0.21947082]
   [-0.03323015 -0.18494388 -0.21947082 -0.22479639 -0.22479639]
   [-0.03323015 -0.18494388 -0.21947082 -0.22479639 -0.22479639]]

  [[-0.0178092  -0.03178171 -0.03266479 -0.03278037 -0.03278037]
   [-0.03178171 -0.14752459 -0.16869381 -0.17182262 -0.17182262]
   [-0.03266479 -0.16869381 -0.19695629 -0.2012346  -0.2012346 ]
   [-0.03278037 -0.17182262 -0.2012346  -0.20570291 -0.20570291]
   [-0.03278037 -0.17182262 -0.2012346  -0.20570291 -0.20570291]]]


 [[[-0.01825909 -0.03324343 -0.03421084 -0.03433765 -0.03433765]
   [-0.03324343 -0.1853561  -0.22005156 -0.22540569 -0.22540569]
   [-0.03421084 -0.22005156 -0.27072696 -0.2788767  -0.2788767 ]
   [-0.03433765 -0.22540569 -0.2788767  -0.28753234 -0.28753234]
   [-0.03433765 -0.22540569 -0.2788767  -0.28753234 -0.28753234]]

  [[-0.01796159 -0.0322703  -0.03318112 -0.03330039 -0.03330039]
   [-0.0322703  -0.15867622 -0.1834354  -0.18714095 -0.18714095]
   [-0.03318112 -0.1834354  -0.21734976 -0.22257167 -0.22257167]
   [-0.03330039 -0.18714095 -0.22257167 -0.22805067 -0.22805067]
   [-0.03330039 -0.18714095 -0.22257167 -0.22805067 -0.22805067]]

  [[-0.01784216 -0.03188683 -0.03277584 -0.03289222 -0.03289222]
   [-0.03188683 -0.14981728 -0.1716984  -0.17494073 -0.17494073]
   [-0.03277584 -0.1716984  -0.20106424 -0.2055249  -0.2055249 ]
   [-0.03289222 -0.17494073 -0.2055249  -0.21018797 -0.21018797]
   [-0.03289222 -0.17494073 -0.2055249  -0.21018797 -0.21018797]]

  [[-0.01784216 -0.03188683 -0.03277584 -0.03289222 -0.03289222]
   [-0.03188683 -0.14981728 -0.1716984  -0.17494073 -0.17494073]
   [-0.03277584 -0.1716984  -0.20106424 -0.2055249  -0.2055249 ]
   [-0.03289222 -0.17494073 -0.2055249  -0.21018797 -0.21018797]
   [-0.03289222 -0.17494073 -0.2055249  -0.21018797 -0.21018797]]

  [[-0.0178092  -0.03178171 -0.03266479 -0.03278037 -0.03278037]
   [-0.03178171 -0.14752459 -0.16869381 -0.17182262 -0.17182262]
   [-0.03266479 -0.16869381 -0.19695629 -0.2012346  -0.2012346 ]
   [-0.03278037 -0.17182262 -0.2012346  -0.20570291 -0.20570291]
   [-0.03278037 -0.17182262 -0.2012346  -0.20570291 -0.20570291]]

  [[-0.0176792  -0.03137004 -0.03223008 -0.0323426  -0.0323426 ]
   [-0.03137004 -0.13905419 -0.15770857 -0.16043986 -0.16043986]
   [-0.03223008 -0.15770857 -0.18214344 -0.18579645 -0.18579645]
   [-0.0323426  -0.16043986 -0.18579645 -0.18959899 -0.18959899]
   [-0.0323426  -0.16043986 -0.18579645 -0.18959899 -0.18959899]]]] (6, 6, 5, 5)
hf energy: -99.98340893328248
nuclear repulsion: 5.193669463773174
(11, 11, 11, 11)
initial energy: -105.17707839705564
    ==>  pCCD  amplitude equations <==

     Iter              Corr. Energy                 |dE|    

        0      -0.031856080258       0.031856080258 

        1      -0.036925204121       0.005069123863 

        2      -0.038027090484       0.001101886363 

        3      -0.038283855105       0.000256764621 

        4      -0.038346961807       0.000063106702 

        5      -0.038368632556       0.000021670750 

        6      -0.038368509582       0.000000122974 

        7      -0.038368512061       0.000000002479 

        8      -0.038368512003       0.000000000057 

        9      -0.038368512005       0.000000000001 

       10      -0.038368512005       0.000000000001 





pCCD  correlation contribution: -0.038368512005249045
pCCD  energy: -100.02177744528773




