#INFO: **** input file is /blue/bartlett/z.windom/MOLSSI_develop/test/build_T2_interfaces/RECORDS/verify_spin_CCD/pyscfCode/N2_equil_UHF/run_pyscf.py ****
import numpy as np
import pyscf
from pyscf import ao2mo


def main():
    """ Initialize calculation details, 2e- integrals, Fock matrix, etc """

    # run pyscf for some reason
    basis = '6-31G'#'ccpvdz'
    mol = pyscf.M(
        atom='H 0 0 0; F 0 0 {}'.format(0.917), #'N 0 0 0; N 0 0 {}'.format(2.0749193),
        #atom='Be 0 0 0'
        verbose=5,
        #unit='b',
        basis=basis)


    mf = mol.UHF()
    mf.init_guess='1e'
    mf.conv_tol_grad=1E-10
    mf.run()

    from pyscf.lib import logger

    def stable_opt_internal(mf):
        log = logger.new_logger(mf)
        mo1, _, stable, _ = mf.stability(return_status=True)
        cyc = 0
        while (not stable and cyc < 10):
            log.note('Try to optimize orbitals until stable, attempt %d' % cyc)
            dm1 = mf.make_rdm1(mo1, mf.mo_occ)
            mf = mf.run(dm1)
            mo1, _, stable, _ = mf.stability(return_status=True)
            cyc += 1
        if not stable:
            log.note('Stability Opt failed after %d attempts' % cyc)
        return mf
    print('loop example')
    mf = stable_opt_internal(mf)

    orb=mf.mo_coeff
    print(np.shape(mf.get_hcore()))
    print(np.shape(orb))
    import run_ccd as run_ccd 
 
    cc_runtype={"ccdType":"CCDQf-2"}

    run_ccd.ccd_main(mf,mol,orb,cc_runtype)


main()
#INFO: ******************** input file end ********************


System: uname_result(system='Linux', node='login2.ufhpc', release='3.10.0-1160.80.1.el7.x86_64', version='#1 SMP Sat Oct 8 18:13:21 UTC 2022', machine='x86_64', processor='x86_64')  Threads 32
Python 3.7.12 | packaged by conda-forge | (default, Oct 26 2021, 06:08:21) 
[GCC 9.4.0]
numpy 1.21.6  scipy 1.7.3
Date: Mon Jan 30 20:26:11 2023
PySCF version 2.1.1
PySCF path  /blue/bartlett/z.windom/MOLSSI_develop/T2method/new/pyscf
GIT ORIG_HEAD 41535e74b1de6eb21fc9b6a13c089d6cd55b35d7
GIT HEAD (branch master) ff882f83f5730ea5610d52cc5b88d278f9b71da7

[ENV] PYSCF_INC_DIR /home/z.windom/libxc-4.3.4
[CONFIG] conf_file /home/z.windom/.pyscf_conf.py
[INPUT] verbose = 5
[INPUT] max_memory = 4000 
[INPUT] num. atoms = 2
[INPUT] num. electrons = 10
[INPUT] charge = 0
[INPUT] spin (= nelec alpha-beta = 2S) = 0
[INPUT] symmetry False subgroup None
[INPUT] Mole.unit = angstrom
[INPUT] Symbol           X                Y                Z      unit          X                Y                Z       unit  Magmom
[INPUT]  1 H      0.000000000000   0.000000000000   0.000000000000 AA    0.000000000000   0.000000000000   0.000000000000 Bohr   0.0
[INPUT]  2 F      0.000000000000   0.000000000000   0.917000000000 AA    0.000000000000   0.000000000000   1.732878856226 Bohr   0.0
[INPUT] ---------------- BASIS SET ---------------- 
[INPUT] l, kappa, [nprim/nctr], expnt,             c_1 c_2 ...
[INPUT] H
[INPUT] 0    0    [3    /1   ]  18.731137         0.0334946
                                2.8253937         0.23472695
                                0.6401217         0.81375733
[INPUT] 0    0    [1    /1   ]  0.1612778            1
[INPUT] F
[INPUT] 0    0    [6    /1   ]  7001.71309        0.0018196169
                                1051.36609        0.0139160796
                                239.28569         0.0684053245
                                67.3974453        0.23318576
                                21.5199573        0.471267439
                                7.4031013         0.356618546
[INPUT] 0    0    [3    /1   ]  20.8479528        -0.108506975
                                4.80830834        -0.146451658
                                1.34406986        1.12868858
[INPUT] 0    0    [1    /1   ]  0.358151393          1
[INPUT] 1    0    [3    /1   ]  20.8479528        0.0716287243
                                4.80830834        0.345912103
                                1.34406986        0.722469957
[INPUT] 1    0    [1    /1   ]  0.358151393          1

nuclear repulsion = 5.19366946377317
number of shells = 7
number of NR pGTOs = 26
number of NR cGTOs = 11
basis = 6-31G
ecp = {}
CPU time:         2.42


******** <class 'pyscf.scf.uhf.UHF'> ********
method = UHF
initial guess = 1e
damping factor = 0
level_shift factor = 0
DIIS = <class 'pyscf.scf.diis.CDIIS'>
diis_start_cycle = 1
diis_space = 8
SCF conv_tol = 1e-09
SCF conv_tol_grad = 1e-10
SCF max_cycles = 50
direct_scf = True
direct_scf_tol = 1e-13
chkfile to save SCF result = /blue/bartlett/z.windom/MOLSSI_develop/test/build_T2_interfaces/RECORDS/verify_spin_CCD/pyscfCode/N2_equil_UHF/tmpdw7abj88
max_memory 4000 MB (current use 85 MB)
number electrons alpha = 5  beta = 5
Initial guess from hcore.
  alpha nocc = 5  HOMO = -10.0936607887869  LUMO = -5.09275799553285
  beta  nocc = 5  HOMO = -10.0936607887869  LUMO = -5.09275799553285
  alpha mo_energy =
[-41.02296897 -10.44106609 -10.09553976 -10.09366079 -10.09366079
  -5.092758    -4.46049268  -4.406218    -4.406218    -3.81136747
  -2.66937615]
  beta  mo_energy =
[-41.02296897 -10.44106609 -10.09553976 -10.09366079 -10.09366079
  -5.092758    -4.46049268  -4.406218    -4.406218    -3.81136747
  -2.66937615]
multiplicity <S^2> = 0  2S+1 = 1
E1 = -163.11304118007217  Ecoul = 64.29824950165359
init E= -93.6211222146454
cond(S) = 25.594965630916704
    CPU time for initialize scf      4.05 sec, wall time      0.38 sec

WARN: alpha nocc = 5  HOMO 0.54202484270858 >= LUMO 0.542024842708589


WARN: beta  nocc = 5  HOMO 0.546137462869179 >= LUMO 0.54613746286918

  alpha mo_energy =
[-22.4812788   -0.41201957   0.13359938   0.45986465   0.54202484
   0.54202484   1.31849429   2.38135869   2.38135869   2.44055339
   2.69685047]
  beta  mo_energy =
[-22.4834938   -0.36148959   0.12811038   0.46958933   0.54613746
   0.54613746   1.31578262   2.3830793    2.3830793    2.44019944
   2.69780083]
multiplicity <S^2> = 0.028317158  2S+1 = 1.0551155
E1 = -133.408752166515  Ecoul = 31.88635854176068
cycle= 1 E= -96.3287241609812  delta_E= -2.71  |g|= 2.63  |ddm|=  6.2
    CPU time for cycle= 1      0.20 sec, wall time      0.02 sec
  alpha nocc = 5  HOMO = -1.5113821081005  LUMO = -0.16820158008802
  beta  nocc = 5  HOMO = -1.51033245645877  LUMO = -0.171927055527222
  alpha mo_energy =
[-29.30858004  -2.94533292  -2.01649425  -2.00318301  -1.51138211
  -0.16820158   0.4453095    0.50185661   0.54296177   0.91295171
   1.26147263]
  beta  mo_energy =
[-29.30769484  -2.94141591  -2.00855052  -2.00067094  -1.51033246
  -0.17192706   0.44371755   0.50151961   0.54289032   0.9094157
   1.26096089]
multiplicity <S^2> = 0.00022805908  2S+1 = 1.000456
E1 = -158.6945880126828  Ecoul = 54.89866849630643
cycle= 2 E= -98.6022500526032  delta_E= -2.27  |g|= 1.95  |ddm|= 5.35
    CPU time for cycle= 2      0.18 sec, wall time      0.02 sec
  alpha nocc = 5  HOMO = -0.611554512704207  LUMO = 0.0571263749266035
  beta  nocc = 5  HOMO = -0.611075511867388  LUMO = 0.0567890819303068
  alpha mo_energy =
[-26.62078744  -1.81412497  -0.95154131  -0.85142178  -0.61155451
   0.05712637   1.03715713   1.24100142   1.25723425   1.33570119
   1.81356454]
  beta  mo_energy =
[-26.62016632  -1.81197476  -0.94978731  -0.85036874  -0.61107551
   0.05678908   1.03481193   1.24119524   1.25750402   1.33563465
   1.8143982 ]
multiplicity <S^2> = 4.2655252e-05  2S+1 = 1.0000853
E1 = -152.86489652800083  Ecoul = 47.786536011834535
cycle= 3 E= -99.8846910523931  delta_E= -1.28  |g|= 0.52  |ddm|= 0.87
    CPU time for cycle= 3      0.19 sec, wall time      0.02 sec
  alpha nocc = 5  HOMO = -0.654482972827429  LUMO = 0.183612459467863
  beta  nocc = 5  HOMO = -0.654080034264775  LUMO = 0.183923836805657
  alpha mo_energy =
[-26.3973253   -1.63349677  -0.78943229  -0.66105769  -0.65448297
   0.18361246   1.086489     1.47693292   1.47765255   1.58031476
   1.98178414]
  beta  mo_energy =
[-26.39690405  -1.63246885  -0.78897546  -0.66048994  -0.65408003
   0.18392384   1.08567433   1.47721115   1.47786465   1.58068065
   1.98233938]
multiplicity <S^2> = 8.4413667e-06  2S+1 = 1.0000169
E1 = -151.00765286768961  Ecoul = 45.83489932052558
cycle= 4 E= -99.9790840833909  delta_E= -0.0944  |g|= 0.0867  |ddm|= 0.256
    CPU time for cycle= 4      0.20 sec, wall time      0.02 sec
  alpha nocc = 5  HOMO = -0.621682453545861  LUMO = 0.207601209894173
  beta  nocc = 5  HOMO = -0.621447327020574  LUMO = 0.207639956143283
  alpha mo_energy =
[-26.26606693  -1.58586433  -0.73964414  -0.62595616  -0.62168245
   0.20760121   1.11542618   1.48972328   1.49001937   1.59223682
   2.00578382]
  beta  mo_energy =
[-26.26587003  -1.58538265  -0.73915106  -0.62569204  -0.62144733
   0.20763996   1.11494903   1.48984982   1.49016699   1.59254621
   2.00600787]
multiplicity <S^2> = 2.5806578e-06  2S+1 = 1.0000052
E1 = -150.626734243714  Ecoul = 45.44972590401946
cycle= 5 E= -99.9833388759214  delta_E= -0.00425  |g|= 0.00796  |ddm|= 0.0857
    CPU time for cycle= 5      0.19 sec, wall time      0.02 sec
  alpha nocc = 5  HOMO = -0.630877713660216  LUMO = 0.209211324856122
  beta  nocc = 5  HOMO = -0.630749620372717  LUMO = 0.209227809225632
  alpha mo_energy =
[-26.2769173   -1.59011432  -0.73994478  -0.63157452  -0.63087771
   0.20921132   1.11661452   1.48896947   1.48909653   1.59226698
   2.00552345]
  beta  mo_energy =
[-26.27680693  -1.58987175  -0.73960619  -0.63144135  -0.63074962
   0.20922781   1.11637717   1.48904512   1.48916838   1.59247596
   2.00564211]
multiplicity <S^2> = 9.2075836e-07  2S+1 = 1.0000018
E1 = -150.62800244237476  Ecoul = 45.45092625939674
cycle= 6 E= -99.9834067192049  delta_E= -6.78e-05  |g|= 0.00186  |ddm|= 0.0128
    CPU time for cycle= 6      0.17 sec, wall time      0.02 sec
  alpha nocc = 5  HOMO = -0.631188048848183  LUMO = 0.209630151888957
  beta  nocc = 5  HOMO = -0.631117287019552  LUMO = 0.209639006451123
  alpha mo_energy =
[-26.27625563  -1.58993595  -0.73934123  -0.63134188  -0.63118805
   0.20963015   1.11684185   1.48924933   1.48930109   1.5929275
   2.00592552]
  beta  mo_energy =
[-26.27619329  -1.58979821  -0.73913409  -0.63127043  -0.63111729
   0.20963901   1.11670403   1.48928836   1.48933994   1.59305463
   2.00599145]
multiplicity <S^2> = 3.17808e-07  2S+1 = 1.0000006
E1 = -150.62307916758255  Ecoul = 45.44600089044107
cycle= 7 E= -99.9834088133683  delta_E= -2.09e-06  |g|= 0.000462  |ddm|= 0.00188
    CPU time for cycle= 7      0.17 sec, wall time      0.02 sec
  alpha nocc = 5  HOMO = -0.631017720097019  LUMO = 0.209686487442852
  beta  nocc = 5  HOMO = -0.630980392820085  LUMO = 0.209692038615049
  alpha mo_energy =
[-26.27567184  -1.5896154   -0.73900065  -0.63102322  -0.63101772
   0.20968649   1.11684978   1.48947206   1.4894733    1.59318668
   2.0061062 ]
  beta  mo_energy =
[-26.27563801  -1.58954086  -0.73888808  -0.63098583  -0.63098039
   0.20969204   1.11677437   1.48949233   1.48949358   1.59325671
   2.00614298]
multiplicity <S^2> = 9.5517759e-08  2S+1 = 1.0000002
E1 = -150.62133559592837  Ecoul = 45.444257218545836
cycle= 8 E= -99.9834089136094  delta_E= -1e-07  |g|= 0.000102  |ddm|= 0.000362
    CPU time for cycle= 8      0.18 sec, wall time      0.02 sec
  alpha nocc = 5  HOMO = -0.631008461037432  LUMO = 0.209712400317209
  beta  nocc = 5  HOMO = -0.63100766358613  LUMO = 0.209712523322554
  alpha mo_energy =
[-26.27567781  -1.58958818  -0.7389596   -0.63104056  -0.63100846
   0.2097124    1.11683051   1.4894855    1.48949338   1.59322447
   2.00613224]
  beta  mo_energy =
[-26.27567642  -1.5895847   -0.73895307  -0.6310396   -0.63100766
   0.20971252   1.11682616   1.48948582   1.48949359   1.59322843
   2.00613417]
multiplicity <S^2> = 3.1920422e-10  2S+1 = 1
E1 = -150.62121729592968  Ecoul = 45.44413890011426
cycle= 9 E= -99.9834089320422  delta_E= -1.84e-08  |g|= 5.23e-05  |ddm|= 0.000289
    CPU time for cycle= 9      0.13 sec, wall time      0.01 sec
  alpha nocc = 5  HOMO = -0.631031541618525  LUMO = 0.20969194053236
  beta  nocc = 5  HOMO = -0.631031680641741  LUMO = 0.209692021164566
  alpha mo_energy =
[-26.27571846  -1.58960806  -0.73897615  -0.63103364  -0.63103154
   0.20969194   1.11681305   1.48946884   1.48947059   1.59320311
   2.00611246]
  beta  mo_energy =
[-26.27571839  -1.5896078   -0.73897546  -0.63103375  -0.63103168
   0.20969202   1.11681245   1.4894687    1.48947043   1.59320358
   2.00611272]
multiplicity <S^2> = 7.069012e-12  2S+1 = 1
E1 = -150.621448848521  Ecoul = 45.444370451475066
cycle= 10 E= -99.9834089332728  delta_E= -1.23e-09  |g|= 3.86e-06  |ddm|= 5.11e-05
    CPU time for cycle= 10      0.75 sec, wall time      0.04 sec
  alpha nocc = 5  HOMO = -0.631030768578737  LUMO = 0.209693688358902
  beta  nocc = 5  HOMO = -0.631030911953575  LUMO = 0.209693671879916
  alpha mo_energy =
[-26.275715    -1.58960666  -0.73897567  -0.63103115  -0.63103077
   0.20969369   1.11681437   1.48947017   1.48947047   1.59320397
   2.00611371]
  beta  mo_energy =
[-26.27571506  -1.58960672  -0.73897562  -0.63103129  -0.63103091
   0.20969367   1.1168143    1.48947006   1.48947036   1.59320399
   2.00611371]
multiplicity <S^2> = 2.0783375e-13  2S+1 = 1
E1 = -150.6214377824657  Ecoul = 45.444359385410344
cycle= 11 E= -99.9834089332822  delta_E= -9.44e-12  |g|= 6.09e-07  |ddm|= 3.86e-06
    CPU time for cycle= 11      0.31 sec, wall time      0.02 sec
  alpha nocc = 5  HOMO = -0.631031067430608  LUMO = 0.209693697546532
  beta  nocc = 5  HOMO = -0.63103111730513  LUMO = 0.209693694412437
  alpha mo_energy =
[-26.27571494  -1.58960666  -0.7389755   -0.63103111  -0.63103107
   0.2096937    1.11681448   1.4894702    1.48947023   1.5932039
   2.00611371]
  beta  mo_energy =
[-26.27571496  -1.58960669  -0.7389755   -0.63103116  -0.63103112
   0.20969369   1.11681447   1.48947016   1.48947019   1.59320389
   2.00611371]
multiplicity <S^2> = 9.7699626e-15  2S+1 = 1
E1 = -150.62143801757367  Ecoul = 45.44435962051807
cycle= 12 E= -99.9834089332824  delta_E= -2.27e-13  |g|= 8.47e-08  |ddm|= 6.99e-07
    CPU time for cycle= 12      0.31 sec, wall time      0.02 sec
  alpha nocc = 5  HOMO = -0.631031106929372  LUMO = 0.209693701176904
  beta  nocc = 5  HOMO = -0.631031127823204  LUMO = 0.209693699496593
  alpha mo_energy =
[-26.27571496  -1.58960667  -0.73897552  -0.63103112  -0.63103111
   0.2096937    1.11681447   1.48947019   1.4894702    1.5932039
   2.00611371]
  beta  mo_energy =
[-26.27571497  -1.58960668  -0.73897552  -0.63103114  -0.63103113
   0.2096937    1.11681447   1.48947018   1.48947019   1.5932039
   2.00611371]
multiplicity <S^2> = -2.6645353e-15  2S+1 = 1
E1 = -150.62143797647673  Ecoul = 45.44435957942104
cycle= 13 E= -99.9834089332825  delta_E= -8.53e-14  |g|= 2.95e-08  |ddm|= 9.45e-08
    CPU time for cycle= 13      0.28 sec, wall time      0.02 sec
Linear dependence found in DIIS error vectors.
  alpha nocc = 5  HOMO = -0.63103111301512  LUMO = 0.209693700086317
  beta  nocc = 5  HOMO = -0.631031127424648  LUMO = 0.20969369893075
  alpha mo_energy =
[-26.27571496  -1.58960667  -0.73897552  -0.63103112  -0.63103111
   0.2096937    1.11681447   1.48947019   1.4894702    1.5932039
   2.00611371]
  beta  mo_energy =
[-26.27571497  -1.58960668  -0.73897552  -0.63103114  -0.63103113
   0.2096937    1.11681447   1.48947018   1.48947019   1.5932039
   2.00611371]
multiplicity <S^2> = -6.2172489e-15  2S+1 = 1
E1 = -150.62143797710144  Ecoul = 45.444359580045855
cycle= 14 E= -99.9834089332824  delta_E= 9.95e-14  |g|= 1.98e-08  |ddm|= 1.48e-08
    CPU time for cycle= 14      0.29 sec, wall time      0.02 sec
Linear dependence found in DIIS error vectors.
  alpha nocc = 5  HOMO = -0.631031115566185  LUMO = 0.209693699626965
  beta  nocc = 5  HOMO = -0.631031127015365  LUMO = 0.209693698712743
  alpha mo_energy =
[-26.27571496  -1.58960667  -0.73897552  -0.63103112  -0.63103112
   0.2096937    1.11681447   1.48947019   1.4894702    1.5932039
   2.00611371]
  beta  mo_energy =
[-26.27571497  -1.58960668  -0.73897552  -0.63103113  -0.63103113
   0.2096937    1.11681447   1.48947018   1.48947019   1.5932039
   2.00611371]
multiplicity <S^2> = 8.8817842e-16  2S+1 = 1
E1 = -150.62143797679056  Ecoul = 45.44435957973498
cycle= 15 E= -99.9834089332824  delta_E=    0  |g|= 1.55e-08  |ddm|= 6.63e-09
    CPU time for cycle= 15      0.28 sec, wall time      0.02 sec
Linear dependence found in DIIS error vectors.
  alpha nocc = 5  HOMO = -0.63103111686799  LUMO = 0.209693699156561
  beta  nocc = 5  HOMO = -0.631031126664885  LUMO = 0.209693698375676
  alpha mo_energy =
[-26.27571496  -1.58960667  -0.73897552  -0.63103112  -0.63103112
   0.2096937    1.11681447   1.48947019   1.48947019   1.5932039
   2.00611371]
  beta  mo_energy =
[-26.27571497  -1.58960668  -0.73897552  -0.63103113  -0.63103113
   0.2096937    1.11681447   1.48947018   1.48947019   1.5932039
   2.00611371]
multiplicity <S^2> = -3.5527137e-15  2S+1 = 1
E1 = -150.62143797976137  Ecoul = 45.44435958270576
cycle= 16 E= -99.9834089332824  delta_E= -2.84e-14  |g|= 1.31e-08  |ddm|= 4.22e-09
    CPU time for cycle= 16      0.32 sec, wall time      0.01 sec
Linear dependence found in DIIS error vectors.
  alpha nocc = 5  HOMO = -0.631031117714172  LUMO = 0.209693698953301
  beta  nocc = 5  HOMO = -0.631031125887661  LUMO = 0.209693698339944
  alpha mo_energy =
[-26.27571496  -1.58960667  -0.73897552  -0.63103112  -0.63103112
   0.2096937    1.11681447   1.48947019   1.48947019   1.5932039
   2.00611371]
  beta  mo_energy =
[-26.27571497  -1.58960668  -0.73897552  -0.63103113  -0.63103113
   0.2096937    1.11681447   1.48947018   1.48947019   1.5932039
   2.00611371]
multiplicity <S^2> = -1.7763568e-15  2S+1 = 1
E1 = -150.62143797996183  Ecoul = 45.444359582906145
cycle= 17 E= -99.9834089332825  delta_E= -7.11e-14  |g|= 1.16e-08  |ddm|= 5.2e-09
    CPU time for cycle= 17      0.27 sec, wall time      0.01 sec
Linear dependence found in DIIS error vectors.
  alpha nocc = 5  HOMO = -0.631031116164682  LUMO = 0.209693698984975
  beta  nocc = 5  HOMO = -0.631031124509878  LUMO = 0.209693698317289
  alpha mo_energy =
[-26.27571496  -1.58960667  -0.73897552  -0.63103112  -0.63103112
   0.2096937    1.11681447   1.48947019   1.4894702    1.5932039
   2.00611371]
  beta  mo_energy =
[-26.27571497  -1.58960668  -0.73897552  -0.63103113  -0.63103112
   0.2096937    1.11681447   1.48947019   1.48947019   1.5932039
   2.00611371]
multiplicity <S^2> = 1.7763568e-15  2S+1 = 1
E1 = -150.62143797352425  Ecoul = 45.444359576468685
cycle= 18 E= -99.9834089332824  delta_E= 1.14e-13  |g|= 1.13e-08  |ddm|= 4.84e-09
    CPU time for cycle= 18      0.27 sec, wall time      0.01 sec
Linear dependence found in DIIS error vectors.
  alpha nocc = 5  HOMO = -0.631031116960092  LUMO = 0.209693698906963
  beta  nocc = 5  HOMO = -0.631031124726453  LUMO = 0.209693698284583
  alpha mo_energy =
[-26.27571496  -1.58960667  -0.73897552  -0.63103112  -0.63103112
   0.2096937    1.11681447   1.48947019   1.48947019   1.5932039
   2.00611371]
  beta  mo_energy =
[-26.27571497  -1.58960668  -0.73897552  -0.63103113  -0.63103112
   0.2096937    1.11681447   1.48947019   1.48947019   1.5932039
   2.00611371]
multiplicity <S^2> = -5.3290705e-15  2S+1 = 1
E1 = -150.62143797550416  Ecoul = 45.44435957844851
cycle= 19 E= -99.9834089332825  delta_E= -8.53e-14  |g|= 1.04e-08  |ddm|= 1.34e-09
    CPU time for cycle= 19      0.28 sec, wall time      0.01 sec
Linear dependence found in DIIS error vectors.
  alpha nocc = 5  HOMO = -0.631031116502111  LUMO = 0.209693698744233
  beta  nocc = 5  HOMO = -0.631031124731491  LUMO = 0.209693698093806
  alpha mo_energy =
[-26.27571496  -1.58960667  -0.73897552  -0.63103112  -0.63103112
   0.2096937    1.11681447   1.48947019   1.48947019   1.5932039
   2.00611371]
  beta  mo_energy =
[-26.27571497  -1.58960668  -0.73897552  -0.63103113  -0.63103112
   0.2096937    1.11681447   1.48947019   1.48947019   1.5932039
   2.00611371]
multiplicity <S^2> = -8.8817842e-16  2S+1 = 1
E1 = -150.6214379774385  Ecoul = 45.44435958038288
cycle= 20 E= -99.9834089332824  delta_E= 4.26e-14  |g|= 1.1e-08  |ddm|= 3.64e-09
    CPU time for cycle= 20      0.53 sec, wall time      0.02 sec
Linear dependence found in DIIS error vectors.
  alpha nocc = 5  HOMO = -0.63103111956355  LUMO = 0.209693698587073
  beta  nocc = 5  HOMO = -0.63103112517442  LUMO = 0.209693698148366
  alpha mo_energy =
[-26.27571496  -1.58960667  -0.73897552  -0.63103112  -0.63103112
   0.2096937    1.11681447   1.48947019   1.48947019   1.5932039
   2.00611371]
  beta  mo_energy =
[-26.27571497  -1.58960668  -0.73897552  -0.63103113  -0.63103113
   0.2096937    1.11681447   1.48947019   1.48947019   1.5932039
   2.00611371]
multiplicity <S^2> = -4.4408921e-15  2S+1 = 1
E1 = -150.62143797839184  Ecoul = 45.44435958133624
cycle= 21 E= -99.9834089332824  delta_E= 1.42e-14  |g|= 7.2e-09  |ddm|= 6.27e-09
    CPU time for cycle= 21      0.74 sec, wall time      0.05 sec
Linear dependence found in DIIS error vectors.
  alpha nocc = 5  HOMO = -0.631031120288621  LUMO = 0.209693698518004
  beta  nocc = 5  HOMO = -0.631031124932887  LUMO = 0.209693698156903
  alpha mo_energy =
[-26.27571496  -1.58960667  -0.73897552  -0.63103112  -0.63103112
   0.2096937    1.11681447   1.48947019   1.48947019   1.5932039
   2.00611371]
  beta  mo_energy =
[-26.27571497  -1.58960668  -0.73897552  -0.63103113  -0.63103112
   0.2096937    1.11681447   1.48947019   1.48947019   1.5932039
   2.00611371]
multiplicity <S^2> = 3.5527137e-15  2S+1 = 1
E1 = -150.62143797829032  Ecoul = 45.44435958123474
cycle= 22 E= -99.9834089332824  delta_E= 2.84e-14  |g|= 5.91e-09  |ddm|= 2.01e-09
    CPU time for cycle= 22      0.36 sec, wall time      0.02 sec
Linear dependence found in DIIS error vectors.
  alpha nocc = 5  HOMO = -0.631031120722397  LUMO = 0.209693698473634
  beta  nocc = 5  HOMO = -0.631031124748101  LUMO = 0.209693698162084
  alpha mo_energy =
[-26.27571496  -1.58960667  -0.73897552  -0.63103112  -0.63103112
   0.2096937    1.11681447   1.48947019   1.48947019   1.5932039
   2.00611371]
  beta  mo_energy =
[-26.27571497  -1.58960668  -0.73897552  -0.63103113  -0.63103112
   0.2096937    1.11681447   1.48947019   1.48947019   1.5932039
   2.00611371]
multiplicity <S^2> = -1.7763568e-15  2S+1 = 1
E1 = -150.62143797826323  Ecoul = 45.44435958120755
cycle= 23 E= -99.9834089332825  delta_E= -1.14e-13  |g|= 5.11e-09  |ddm|= 1.25e-09
    CPU time for cycle= 23      0.36 sec, wall time      0.02 sec
Linear dependence found in DIIS error vectors.
  alpha nocc = 5  HOMO = -0.631031121029249  LUMO = 0.209693698438334
  beta  nocc = 5  HOMO = -0.631031124583901  LUMO = 0.209693698164562
  alpha mo_energy =
[-26.27571497  -1.58960667  -0.73897552  -0.63103112  -0.63103112
   0.2096937    1.11681447   1.48947019   1.48947019   1.5932039
   2.00611371]
  beta  mo_energy =
[-26.27571497  -1.58960668  -0.73897552  -0.63103113  -0.63103112
   0.2096937    1.11681447   1.48947019   1.48947019   1.5932039
   2.00611371]
multiplicity <S^2> = 1.7763568e-15  2S+1 = 1
E1 = -150.62143797823327  Ecoul = 45.44435958117761
cycle= 24 E= -99.9834089332825  delta_E= 1.42e-14  |g|= 4.51e-09  |ddm|= 9.38e-10
    CPU time for cycle= 24      0.40 sec, wall time      0.02 sec
Linear dependence found in DIIS error vectors.
  alpha nocc = 5  HOMO = -0.631031121313768  LUMO = 0.209693698413056
  beta  nocc = 5  HOMO = -0.63103112447024  LUMO = 0.20969369817153
  alpha mo_energy =
[-26.27571497  -1.58960667  -0.73897552  -0.63103112  -0.63103112
   0.2096937    1.11681447   1.48947019   1.48947019   1.5932039
   2.00611371]
  beta  mo_energy =
[-26.27571497  -1.58960668  -0.73897552  -0.63103113  -0.63103112
   0.2096937    1.11681447   1.48947019   1.48947019   1.5932039
   2.00611371]
multiplicity <S^2> = -6.2172489e-15  2S+1 = 1
E1 = -150.62143797833812  Ecoul = 45.44435958128247
cycle= 25 E= -99.9834089332825  delta_E= 1.42e-14  |g|= 4.02e-09  |ddm|= 7.66e-10
    CPU time for cycle= 25      0.33 sec, wall time      0.01 sec
Linear dependence found in DIIS error vectors.
  alpha nocc = 5  HOMO = -0.631031121549043  LUMO = 0.209693698396081
  beta  nocc = 5  HOMO = -0.631031124397891  LUMO = 0.209693698176335
  alpha mo_energy =
[-26.27571497  -1.58960667  -0.73897552  -0.63103112  -0.63103112
   0.2096937    1.11681447   1.48947019   1.48947019   1.5932039
   2.00611371]
  beta  mo_energy =
[-26.27571497  -1.58960668  -0.73897552  -0.63103113  -0.63103112
   0.2096937    1.11681447   1.48947019   1.48947019   1.5932039
   2.00611371]
multiplicity <S^2> = 4.4408921e-15  2S+1 = 1
E1 = -150.6214379784245  Ecoul = 45.444359581368886
cycle= 26 E= -99.9834089332824  delta_E= 4.26e-14  |g|= 3.59e-09  |ddm|= 7.94e-10
    CPU time for cycle= 26      0.39 sec, wall time      0.01 sec
Linear dependence found in DIIS error vectors.
  alpha nocc = 5  HOMO = -0.631031121761176  LUMO = 0.209693698389239
  beta  nocc = 5  HOMO = -0.631031124261373  LUMO = 0.209693698197438
  alpha mo_energy =
[-26.27571497  -1.58960667  -0.73897552  -0.63103112  -0.63103112
   0.2096937    1.11681447   1.48947019   1.48947019   1.5932039
   2.00611371]
  beta  mo_energy =
[-26.27571497  -1.58960668  -0.73897552  -0.63103113  -0.63103112
   0.2096937    1.11681447   1.48947019   1.48947019   1.5932039
   2.00611371]
multiplicity <S^2> = 0  2S+1 = 1
E1 = -150.621437978021  Ecoul = 45.4443595809654
cycle= 27 E= -99.9834089332824  delta_E= 1.42e-14  |g|= 3.15e-09  |ddm|= 6.99e-10
    CPU time for cycle= 27      0.44 sec, wall time      0.02 sec
Linear dependence found in DIIS error vectors.
  alpha nocc = 5  HOMO = -0.631031121981413  LUMO = 0.20969369837926
  beta  nocc = 5  HOMO = -0.631031124147041  LUMO = 0.2096936982144
  alpha mo_energy =
[-26.27571497  -1.58960667  -0.73897552  -0.63103112  -0.63103112
   0.2096937    1.11681447   1.48947019   1.48947019   1.5932039
   2.00611371]
  beta  mo_energy =
[-26.27571497  -1.58960668  -0.73897552  -0.63103112  -0.63103112
   0.2096937    1.11681447   1.48947019   1.48947019   1.5932039
   2.00611371]
multiplicity <S^2> = 4.4408921e-15  2S+1 = 1
E1 = -150.6214379777903  Ecoul = 45.444359580734684
cycle= 28 E= -99.9834089332824  delta_E= -1.42e-14  |g|= 2.73e-09  |ddm|= 6.62e-10
    CPU time for cycle= 28      0.43 sec, wall time      0.02 sec
Linear dependence found in DIIS error vectors.
  alpha nocc = 5  HOMO = -0.631031122279111  LUMO = 0.209693698368193
  beta  nocc = 5  HOMO = -0.631031124063146  LUMO = 0.209693698233196
  alpha mo_energy =
[-26.27571497  -1.58960668  -0.73897552  -0.63103112  -0.63103112
   0.2096937    1.11681447   1.48947019   1.48947019   1.5932039
   2.00611371]
  beta  mo_energy =
[-26.27571497  -1.58960668  -0.73897552  -0.63103112  -0.63103112
   0.2096937    1.11681447   1.48947019   1.48947019   1.5932039
   2.00611371]
multiplicity <S^2> = 0  2S+1 = 1
E1 = -150.62143797770204  Ecoul = 45.444359580646406
cycle= 29 E= -99.9834089332825  delta_E= -2.84e-14  |g|= 2.23e-09  |ddm|= 8.02e-10
    CPU time for cycle= 29      1.00 sec, wall time      0.06 sec
Linear dependence found in DIIS error vectors.
  alpha nocc = 5  HOMO = -0.631031122453046  LUMO = 0.209693698356439
  beta  nocc = 5  HOMO = -0.631031123995822  LUMO = 0.209693698240274
  alpha mo_energy =
[-26.27571497  -1.58960668  -0.73897552  -0.63103112  -0.63103112
   0.2096937    1.11681447   1.48947019   1.48947019   1.5932039
   2.00611371]
  beta  mo_energy =
[-26.27571497  -1.58960668  -0.73897552  -0.63103112  -0.63103112
   0.2096937    1.11681447   1.48947019   1.48947019   1.5932039
   2.00611371]
multiplicity <S^2> = -5.3290705e-15  2S+1 = 1
E1 = -150.6214379777515  Ecoul = 45.44435958069589
cycle= 30 E= -99.9834089332824  delta_E= 2.84e-14  |g|= 1.93e-09  |ddm|= 4.86e-10
    CPU time for cycle= 30      1.25 sec, wall time      0.07 sec
Linear dependence found in DIIS error vectors.
  alpha nocc = 5  HOMO = -0.631031122591312  LUMO = 0.20969369834736
  beta  nocc = 5  HOMO = -0.631031123938666  LUMO = 0.209693698246385
  alpha mo_energy =
[-26.27571497  -1.58960668  -0.73897552  -0.63103112  -0.63103112
   0.2096937    1.11681447   1.48947019   1.48947019   1.5932039
   2.00611371]
  beta  mo_energy =
[-26.27571497  -1.58960668  -0.73897552  -0.63103112  -0.63103112
   0.2096937    1.11681447   1.48947019   1.48947019   1.5932039
   2.00611371]
multiplicity <S^2> = -2.6645353e-15  2S+1 = 1
E1 = -150.62143797778822  Ecoul = 45.444359580732595
cycle= 31 E= -99.9834089332824  delta_E= -1.42e-14  |g|= 1.69e-09  |ddm|= 3.92e-10
    CPU time for cycle= 31      0.34 sec, wall time      0.02 sec
Linear dependence found in DIIS error vectors.
  alpha nocc = 5  HOMO = -0.631031122710071  LUMO = 0.209693698339969
  beta  nocc = 5  HOMO = -0.631031123888864  LUMO = 0.209693698252029
  alpha mo_energy =
[-26.27571497  -1.58960668  -0.73897552  -0.63103112  -0.63103112
   0.2096937    1.11681447   1.48947019   1.48947019   1.5932039
   2.00611371]
  beta  mo_energy =
[-26.27571497  -1.58960668  -0.73897552  -0.63103112  -0.63103112
   0.2096937    1.11681447   1.48947019   1.48947019   1.5932039
   2.00611371]
multiplicity <S^2> = -7.1054274e-15  2S+1 = 1
E1 = -150.62143797781783  Ecoul = 45.44435958076212
cycle= 32 E= -99.9834089332825  delta_E= -8.53e-14  |g|= 1.48e-09  |ddm|= 3.4e-10
    CPU time for cycle= 32      0.77 sec, wall time      0.05 sec
Linear dependence found in DIIS error vectors.
  alpha nocc = 5  HOMO = -0.631031122815513  LUMO = 0.209693698334054
  beta  nocc = 5  HOMO = -0.631031123845032  LUMO = 0.209693698257579
  alpha mo_energy =
[-26.27571497  -1.58960668  -0.73897552  -0.63103112  -0.63103112
   0.2096937    1.11681447   1.48947019   1.48947019   1.5932039
   2.00611371]
  beta  mo_energy =
[-26.27571497  -1.58960668  -0.73897552  -0.63103112  -0.63103112
   0.2096937    1.11681447   1.48947019   1.48947019   1.5932039
   2.00611371]
multiplicity <S^2> = -3.5527137e-15  2S+1 = 1
E1 = -150.62143797783926  Ecoul = 45.44435958078361
cycle= 33 E= -99.9834089332825  delta_E= 5.68e-14  |g|= 1.3e-09  |ddm|= 3.05e-10
    CPU time for cycle= 33      0.42 sec, wall time      0.02 sec
Linear dependence found in DIIS error vectors.
  alpha nocc = 5  HOMO = -0.631031122911173  LUMO = 0.209693698328903
  beta  nocc = 5  HOMO = -0.63103112380752  LUMO = 0.209693698262534
  alpha mo_energy =
[-26.27571497  -1.58960668  -0.73897552  -0.63103112  -0.63103112
   0.2096937    1.11681447   1.48947019   1.48947019   1.5932039
   2.00611371]
  beta  mo_energy =
[-26.27571497  -1.58960668  -0.73897552  -0.63103112  -0.63103112
   0.2096937    1.11681447   1.48947019   1.48947019   1.5932039
   2.00611371]
multiplicity <S^2> = -1.7763568e-15  2S+1 = 1
E1 = -150.62143797786578  Ecoul = 45.44435958081013
cycle= 34 E= -99.9834089332825  delta_E=    0  |g|= 1.13e-09  |ddm|= 2.79e-10
    CPU time for cycle= 34      0.35 sec, wall time      0.02 sec
Linear dependence found in DIIS error vectors.
  alpha nocc = 5  HOMO = -0.631031122999979  LUMO = 0.209693698324052
  beta  nocc = 5  HOMO = -0.63103112377343  LUMO = 0.209693698267178
  alpha mo_energy =
[-26.27571497  -1.58960668  -0.73897552  -0.63103112  -0.63103112
   0.2096937    1.11681447   1.48947019   1.48947019   1.5932039
   2.00611371]
  beta  mo_energy =
[-26.27571497  -1.58960668  -0.73897552  -0.63103112  -0.63103112
   0.2096937    1.11681447   1.48947019   1.48947019   1.5932039
   2.00611371]
multiplicity <S^2> = 1.7763568e-15  2S+1 = 1
E1 = -150.62143797789662  Ecoul = 45.44435958084102
cycle= 35 E= -99.9834089332824  delta_E= 5.68e-14  |g|= 9.77e-10  |ddm|= 2.47e-10
    CPU time for cycle= 35      0.98 sec, wall time      0.04 sec
Linear dependence found in DIIS error vectors.
  alpha nocc = 5  HOMO = -0.631031123074516  LUMO = 0.209693698320188
  beta  nocc = 5  HOMO = -0.631031123739473  LUMO = 0.209693698271638
  alpha mo_energy =
[-26.27571497  -1.58960668  -0.73897552  -0.63103112  -0.63103112
   0.2096937    1.11681447   1.48947019   1.48947019   1.5932039
   2.00611371]
  beta  mo_energy =
[-26.27571497  -1.58960668  -0.73897552  -0.63103112  -0.63103112
   0.2096937    1.11681447   1.48947019   1.48947019   1.5932039
   2.00611371]
multiplicity <S^2> = -4.4408921e-15  2S+1 = 1
E1 = -150.62143797789994  Ecoul = 45.444359580844306
cycle= 36 E= -99.9834089332825  delta_E= -4.26e-14  |g|= 8.43e-10  |ddm|= 2.2e-10
    CPU time for cycle= 36      1.70 sec, wall time      0.10 sec
Linear dependence found in DIIS error vectors.
  alpha nocc = 5  HOMO = -0.631031123136813  LUMO = 0.209693698317078
  beta  nocc = 5  HOMO = -0.63103112370772  LUMO = 0.209693698275678
  alpha mo_energy =
[-26.27571497  -1.58960668  -0.73897552  -0.63103112  -0.63103112
   0.2096937    1.11681447   1.48947019   1.48947019   1.5932039
   2.00611371]
  beta  mo_energy =
[-26.27571497  -1.58960668  -0.73897552  -0.63103112  -0.63103112
   0.2096937    1.11681447   1.48947019   1.48947019   1.5932039
   2.00611371]
multiplicity <S^2> = 0  2S+1 = 1
E1 = -150.62143797788883  Ecoul = 45.44435958083325
cycle= 37 E= -99.9834089332824  delta_E= 5.68e-14  |g|= 7.27e-10  |ddm|= 1.94e-10
    CPU time for cycle= 37      0.56 sec, wall time      0.03 sec
Linear dependence found in DIIS error vectors.
  alpha nocc = 5  HOMO = -0.631031123184515  LUMO = 0.2096936983145
  beta  nocc = 5  HOMO = -0.631031123679447  LUMO = 0.209693698278852
  alpha mo_energy =
[-26.27571497  -1.58960668  -0.73897552  -0.63103112  -0.63103112
   0.2096937    1.11681447   1.48947019   1.48947019   1.5932039
   2.00611371]
  beta  mo_energy =
[-26.27571497  -1.58960668  -0.73897552  -0.63103112  -0.63103112
   0.2096937    1.11681447   1.48947019   1.48947019   1.5932039
   2.00611371]
multiplicity <S^2> = -1.7763568e-15  2S+1 = 1
E1 = -150.62143797787513  Ecoul = 45.4443595808195
cycle= 38 E= -99.9834089332824  delta_E= -4.26e-14  |g|= 6.33e-10  |ddm|= 1.56e-10
    CPU time for cycle= 38      0.27 sec, wall time      0.01 sec
Linear dependence found in DIIS error vectors.
  alpha nocc = 5  HOMO = -0.631031123225754  LUMO = 0.209693698312291
  beta  nocc = 5  HOMO = -0.631031123655129  LUMO = 0.209693698281584
  alpha mo_energy =
[-26.27571497  -1.58960668  -0.73897552  -0.63103112  -0.63103112
   0.2096937    1.11681447   1.48947019   1.48947019   1.5932039
   2.00611371]
  beta  mo_energy =
[-26.27571497  -1.58960668  -0.73897552  -0.63103112  -0.63103112
   0.2096937    1.11681447   1.48947019   1.48947019   1.5932039
   2.00611371]
multiplicity <S^2> = 1.7763568e-15  2S+1 = 1
E1 = -150.62143797786536  Ecoul = 45.444359580809774
cycle= 39 E= -99.9834089332824  delta_E= 4.26e-14  |g|= 5.52e-10  |ddm|= 1.36e-10
    CPU time for cycle= 39      0.36 sec, wall time      0.01 sec
Linear dependence found in DIIS error vectors.
  alpha nocc = 5  HOMO = -0.631031123261967  LUMO = 0.209693698310374
  beta  nocc = 5  HOMO = -0.631031123633988  LUMO = 0.209693698283966
  alpha mo_energy =
[-26.27571497  -1.58960668  -0.73897552  -0.63103112  -0.63103112
   0.2096937    1.11681447   1.48947019   1.48947019   1.5932039
   2.00611371]
  beta  mo_energy =
[-26.27571497  -1.58960668  -0.73897552  -0.63103112  -0.63103112
   0.2096937    1.11681447   1.48947019   1.48947019   1.5932039
   2.00611371]
multiplicity <S^2> = 1.7763568e-15  2S+1 = 1
E1 = -150.62143797785876  Ecoul = 45.44435958080314
cycle= 40 E= -99.9834089332824  delta_E= -4.26e-14  |g|= 4.82e-10  |ddm|= 1.2e-10
    CPU time for cycle= 40      0.31 sec, wall time      0.01 sec
Linear dependence found in DIIS error vectors.
  alpha nocc = 5  HOMO = -0.631031123293887  LUMO = 0.209693698308691
  beta  nocc = 5  HOMO = -0.631031123615557  LUMO = 0.209693698286042
  alpha mo_energy =
[-26.27571497  -1.58960668  -0.73897552  -0.63103112  -0.63103112
   0.2096937    1.11681447   1.48947019   1.48947019   1.5932039
   2.00611371]
  beta  mo_energy =
[-26.27571497  -1.58960668  -0.73897552  -0.63103112  -0.63103112
   0.2096937    1.11681447   1.48947019   1.48947019   1.5932039
   2.00611371]
multiplicity <S^2> = 0  2S+1 = 1
E1 = -150.6214379778546  Ecoul = 45.444359580799016
cycle= 41 E= -99.9834089332824  delta_E= 2.84e-14  |g|= 4.19e-10  |ddm|= 1.06e-10
    CPU time for cycle= 41      0.42 sec, wall time      0.02 sec
Linear dependence found in DIIS error vectors.
  alpha nocc = 5  HOMO = -0.631031123321911  LUMO = 0.209693698307202
  beta  nocc = 5  HOMO = -0.631031123599449  LUMO = 0.209693698287827
  alpha mo_energy =
[-26.27571497  -1.58960668  -0.73897552  -0.63103112  -0.63103112
   0.2096937    1.11681447   1.48947019   1.48947019   1.5932039
   2.00611371]
  beta  mo_energy =
[-26.27571497  -1.58960668  -0.73897552  -0.63103112  -0.63103112
   0.2096937    1.11681447   1.48947019   1.48947019   1.5932039
   2.00611371]
multiplicity <S^2> = -5.3290705e-15  2S+1 = 1
E1 = -150.62143797785248  Ecoul = 45.44435958079687
cycle= 42 E= -99.9834089332824  delta_E= -1.42e-14  |g|= 3.65e-10  |ddm|= 9.37e-11
    CPU time for cycle= 42      0.33 sec, wall time      0.01 sec
Linear dependence found in DIIS error vectors.
  alpha nocc = 5  HOMO = -0.631031123346505  LUMO = 0.209693698305848
  beta  nocc = 5  HOMO = -0.631031123585449  LUMO = 0.20969369828934
  alpha mo_energy =
[-26.27571497  -1.58960668  -0.73897552  -0.63103112  -0.63103112
   0.2096937    1.11681447   1.48947019   1.48947019   1.5932039
   2.00611371]
  beta  mo_energy =
[-26.27571497  -1.58960668  -0.73897552  -0.63103112  -0.63103112
   0.2096937    1.11681447   1.48947019   1.48947019   1.5932039
   2.00611371]
multiplicity <S^2> = -1.7763568e-15  2S+1 = 1
E1 = -150.6214379778525  Ecoul = 45.44435958079691
cycle= 43 E= -99.9834089332824  delta_E= 1.42e-14  |g|= 3.17e-10  |ddm|= 8.19e-11
    CPU time for cycle= 43      0.29 sec, wall time      0.01 sec
Linear dependence found in DIIS error vectors.
  alpha nocc = 5  HOMO = -0.631031123367829  LUMO = 0.209693698304633
  beta  nocc = 5  HOMO = -0.631031123573519  LUMO = 0.209693698290578
  alpha mo_energy =
[-26.27571497  -1.58960668  -0.73897552  -0.63103112  -0.63103112
   0.2096937    1.11681447   1.48947019   1.48947019   1.5932039
   2.00611371]
  beta  mo_energy =
[-26.27571497  -1.58960668  -0.73897552  -0.63103112  -0.63103112
   0.2096937    1.11681447   1.48947019   1.48947019   1.5932039
   2.00611371]
multiplicity <S^2> = 1.7763568e-15  2S+1 = 1
E1 = -150.621437977855  Ecoul = 45.44435958079936
cycle= 44 E= -99.9834089332825  delta_E= -5.68e-14  |g|= 2.76e-10  |ddm|= 7.16e-11
    CPU time for cycle= 44      1.30 sec, wall time      0.07 sec
Linear dependence found in DIIS error vectors.
  alpha nocc = 5  HOMO = -0.631031123386053  LUMO = 0.209693698303576
  beta  nocc = 5  HOMO = -0.631031123563212  LUMO = 0.20969369829161
  alpha mo_energy =
[-26.27571497  -1.58960668  -0.73897552  -0.63103112  -0.63103112
   0.2096937    1.11681447   1.48947019   1.48947019   1.5932039
   2.00611371]
  beta  mo_energy =
[-26.27571497  -1.58960668  -0.73897552  -0.63103112  -0.63103112
   0.2096937    1.11681447   1.48947019   1.48947019   1.5932039
   2.00611371]
multiplicity <S^2> = -5.3290705e-15  2S+1 = 1
E1 = -150.62143797785774  Ecoul = 45.444359580802086
cycle= 45 E= -99.9834089332825  delta_E=    0  |g|= 2.41e-10  |ddm|= 6.23e-11
    CPU time for cycle= 45      0.60 sec, wall time      0.04 sec
Linear dependence found in DIIS error vectors.
  alpha nocc = 5  HOMO = -0.631031123401421  LUMO = 0.209693698302679
  beta  nocc = 5  HOMO = -0.631031123554168  LUMO = 0.209693698292488
  alpha mo_energy =
[-26.27571497  -1.58960668  -0.73897552  -0.63103112  -0.63103112
   0.2096937    1.11681447   1.48947019   1.48947019   1.5932039
   2.00611371]
  beta  mo_energy =
[-26.27571497  -1.58960668  -0.73897552  -0.63103112  -0.63103112
   0.2096937    1.11681447   1.48947019   1.48947019   1.5932039
   2.00611371]
multiplicity <S^2> = -6.2172489e-15  2S+1 = 1
E1 = -150.6214379778596  Ecoul = 45.444359580803976
cycle= 46 E= -99.9834089332825  delta_E= 1.42e-14  |g|= 2.1e-10  |ddm|= 5.4e-11
    CPU time for cycle= 46      1.36 sec, wall time      0.06 sec
Linear dependence found in DIIS error vectors.
  alpha nocc = 5  HOMO = -0.631031123414597  LUMO = 0.209693698301924
  beta  nocc = 5  HOMO = -0.631031123546147  LUMO = 0.209693698293269
  alpha mo_energy =
[-26.27571497  -1.58960668  -0.73897552  -0.63103112  -0.63103112
   0.2096937    1.11681447   1.48947019   1.48947019   1.5932039
   2.00611371]
  beta  mo_energy =
[-26.27571497  -1.58960668  -0.73897552  -0.63103112  -0.63103112
   0.2096937    1.11681447   1.48947019   1.48947019   1.5932039
   2.00611371]
multiplicity <S^2> = -8.8817842e-16  2S+1 = 1
E1 = -150.6214379778603  Ecoul = 45.4443595808047
cycle= 47 E= -99.9834089332824  delta_E= 4.26e-14  |g|= 1.84e-10  |ddm|= 4.75e-11
    CPU time for cycle= 47      0.64 sec, wall time      0.03 sec
Linear dependence found in DIIS error vectors.
  alpha nocc = 5  HOMO = -0.631031123425898  LUMO = 0.209693698301292
  beta  nocc = 5  HOMO = -0.631031123539042  LUMO = 0.209693698293954
  alpha mo_energy =
[-26.27571497  -1.58960668  -0.73897552  -0.63103112  -0.63103112
   0.2096937    1.11681447   1.48947019   1.48947019   1.5932039
   2.00611371]
  beta  mo_energy =
[-26.27571497  -1.58960668  -0.73897552  -0.63103112  -0.63103112
   0.2096937    1.11681447   1.48947019   1.48947019   1.5932039
   2.00611371]
multiplicity <S^2> = 5.3290705e-15  2S+1 = 1
E1 = -150.62143797786035  Ecoul = 45.44435958080475
cycle= 48 E= -99.9834089332824  delta_E=    0  |g|= 1.61e-10  |ddm|= 4.19e-11
    CPU time for cycle= 48      0.74 sec, wall time      0.04 sec
Linear dependence found in DIIS error vectors.
  alpha nocc = 5  HOMO = -0.631031123435612  LUMO = 0.20969369830075
  beta  nocc = 5  HOMO = -0.631031123532779  LUMO = 0.209693698294549
  alpha mo_energy =
[-26.27571497  -1.58960668  -0.73897552  -0.63103112  -0.63103112
   0.2096937    1.11681447   1.48947019   1.48947019   1.5932039
   2.00611371]
  beta  mo_energy =
[-26.27571497  -1.58960668  -0.73897552  -0.63103112  -0.63103112
   0.2096937    1.11681447   1.48947019   1.48947019   1.5932039
   2.00611371]
multiplicity <S^2> = -4.4408921e-15  2S+1 = 1
E1 = -150.62143797786013  Ecoul = 45.44435958080453
cycle= 49 E= -99.9834089332824  delta_E=    0  |g|= 1.4e-10  |ddm|= 3.69e-11
    CPU time for cycle= 49      0.37 sec, wall time      0.02 sec
Linear dependence found in DIIS error vectors.
  alpha nocc = 5  HOMO = -0.631031123443931  LUMO = 0.209693698300284
  beta  nocc = 5  HOMO = -0.63103112352727  LUMO = 0.209693698295068
  alpha mo_energy =
[-26.27571497  -1.58960668  -0.73897552  -0.63103112  -0.63103112
   0.2096937    1.11681447   1.48947019   1.48947019   1.5932039
   2.00611371]
  beta  mo_energy =
[-26.27571497  -1.58960668  -0.73897552  -0.63103112  -0.63103112
   0.2096937    1.11681447   1.48947019   1.48947019   1.5932039
   2.00611371]
multiplicity <S^2> = -1.7763568e-15  2S+1 = 1
E1 = -150.6214379778596  Ecoul = 45.44435958080396
cycle= 50 E= -99.9834089332825  delta_E= -5.68e-14  |g|= 1.23e-10  |ddm|= 3.25e-11
    CPU time for cycle= 50      0.49 sec, wall time      0.03 sec
    CPU time for scf_cycle     27.83 sec, wall time      1.67 sec
    CPU time for SCF     27.83 sec, wall time      1.67 sec
SCF not converged.
SCF energy = -99.9834089332825 after 50 cycles  <S^2> = -1.7763568e-15  2S+1 = 1
loop example
davidson 0 1  |r|= 2.34  e= [2.32855783]  max|de|= 2.33  lindep= 0.596
davidson 1 2  |r|= 0.91  e= [1.26361659]  max|de|= -1.06  lindep= 0.803
davidson 2 3  |r|= 0.455  e= [1.04595516]  max|de|= -0.218  lindep= 0.863
davidson 3 4  |r|= 0.416  e= [0.91563974]  max|de|= -0.13  lindep= 0.918
davidson 4 5  |r|= 0.149  e= [0.89742694]  max|de|= -0.0182  lindep= 0.884
davidson 5 6  |r|= 0.13  e= [0.89451231]  max|de|= -0.00291  lindep= 0.592
davidson 6 7  |r|= 0.438  e= [0.77775786]  max|de|= -0.117  lindep= 0.622
davidson 7 8  |r|= 0.0392  e= [0.75821623]  max|de|= -0.0195  lindep= 0.802
davidson 8 9  |r|= 0.00762  e= [0.75784021]  max|de|= -0.000376  lindep= 0.965
root 0 converged  |r|= 0.00218  e= 0.7578360279531567  max|de|= -4.18e-06
converged 9 10  |r|= 0.00218  e= [0.75783603]  max|de|= -4.18e-06
<class 'pyscf.scf.uhf.UHF'> wavefunction is stable in the internal stability analysis
(11, 11)
(2, 11, 11)
mo energy: (11,)
total 2e- integral energy: 45.44435958080396
(11, 11, 11, 11)
final rhf/uhf energy: -99.98340893328245
moE: [-26.27571497  -1.58960668  -0.73897552  -0.63103112  -0.63103112
   0.2096937    1.11681447   1.48947019   1.48947019   1.5932039
   2.00611371] [-26.27571497  -1.58960668  -0.73897552  -0.63103112  -0.63103112
   0.2096937    1.11681447   1.48947019   1.48947019   1.5932039
   2.00611371]
slice(None, 5, None) slice(5, None, None)
eabij_aa: [[[[-0.01887832 -0.03535479 -0.03645102 -0.03659501 -0.03659501]
   [-0.03535479 -0.27788579 -0.36390505 -0.37878426 -0.37878426]
   [-0.03645102 -0.36390505 -0.5270541  -0.5588484  -0.5588484 ]
   [-0.03659501 -0.37878426 -0.5588484  -0.59472492 -0.59472492]
   [-0.03659501 -0.37878426 -0.5588484  -0.59472492 -0.59472492]]

  [[-0.01856047 -0.03425616 -0.03528432 -0.03541923 -0.03541923]
   [-0.03425616 -0.22194004 -0.27359105 -0.28191679 -0.28191679]
   [-0.03528432 -0.27359105 -0.35657499 -0.37084907 -0.37084907]
   [-0.03541923 -0.28191679 -0.37084907 -0.38631362 -0.38631362]
   [-0.03541923 -0.28191679 -0.37084907 -0.38631362 -0.38631362]]

  [[-0.01843298 -0.03382437 -0.03482639 -0.03495781 -0.03495781]
   [-0.03382437 -0.2049862  -0.24827782 -0.25511495 -0.25511495]
   [-0.03482639 -0.24827782 -0.31475097 -0.32582093 -0.32582093]
   [-0.03495781 -0.25511495 -0.32582093 -0.33769795 -0.33769795]
   [-0.03495781 -0.25511495 -0.32582093 -0.33769795 -0.33769795]]

  [[-0.01843298 -0.03382437 -0.03482639 -0.03495781 -0.03495781]
   [-0.03382437 -0.2049862  -0.24827782 -0.25511495 -0.25511495]
   [-0.03482639 -0.24827782 -0.31475097 -0.32582093 -0.32582093]
   [-0.03495781 -0.25511495 -0.32582093 -0.33769795 -0.33769795]
   [-0.03495781 -0.25511495 -0.32582093 -0.33769795 -0.33769795]]

  [[-0.0183978  -0.0337061  -0.03470103 -0.0348315  -0.0348315 ]
   [-0.0337061  -0.20071813 -0.24204403 -0.24853764 -0.24853764]
   [-0.03470103 -0.24204403 -0.30479919 -0.31516867 -0.31516867]
   [-0.0348315  -0.24853764 -0.31516867 -0.32626855 -0.32626855]
   [-0.0348315  -0.24853764 -0.31516867 -0.32626855 -0.32626855]]

  [[-0.01825909 -0.03324343 -0.03421084 -0.03433765 -0.03433765]
   [-0.03324343 -0.1853561  -0.22005156 -0.22540569 -0.22540569]
   [-0.03421084 -0.22005156 -0.27072696 -0.2788767  -0.2788767 ]
   [-0.03433765 -0.22540569 -0.2788767  -0.28753234 -0.28753234]
   [-0.03433765 -0.22540569 -0.2788767  -0.28753234 -0.28753234]]]


 [[[-0.01856047 -0.03425616 -0.03528432 -0.03541923 -0.03541923]
   [-0.03425616 -0.22194004 -0.27359105 -0.28191679 -0.28191679]
   [-0.03528432 -0.27359105 -0.35657499 -0.37084907 -0.37084907]
   [-0.03541923 -0.28191679 -0.37084907 -0.38631362 -0.38631362]
   [-0.03541923 -0.28191679 -0.37084907 -0.38631362 -0.38631362]]

  [[-0.01825315 -0.03322375 -0.03419    -0.03431665 -0.03431665]
   [-0.03322375 -0.18474582 -0.21919196 -0.22450384 -0.22450384]
   [-0.03419    -0.21919196 -0.26942704 -0.27749754 -0.27749754]
   [-0.03431665 -0.22450384 -0.27749754 -0.28606646 -0.28606646]
   [-0.03431665 -0.22450384 -0.27749754 -0.28606646 -0.28606646]]

  [[-0.01812983 -0.03281744 -0.03375986 -0.03388334 -0.03388334]
   [-0.03281744 -0.17284597 -0.20263971 -0.20717134 -0.20717134]
   [-0.03375986 -0.20263971 -0.24484385 -0.25149063 -0.25149063]
   [-0.03388334 -0.20717134 -0.25149063 -0.25850836 -0.25850836]
   [-0.03388334 -0.20717134 -0.25149063 -0.25850836 -0.25850836]]

  [[-0.01812983 -0.03281744 -0.03375986 -0.03388334 -0.03388334]
   [-0.03281744 -0.17284597 -0.20263971 -0.20717134 -0.20717134]
   [-0.03375986 -0.20263971 -0.24484385 -0.25149063 -0.25149063]
   [-0.03388334 -0.20717134 -0.25149063 -0.25850836 -0.25850836]
   [-0.03388334 -0.20717134 -0.25149063 -0.25850836 -0.25850836]]

  [[-0.0180958  -0.0327061  -0.03364205 -0.03376466 -0.03376466]
   [-0.0327061  -0.16980144 -0.19846781 -0.20281276 -0.20281276]
   [-0.03364205 -0.19846781 -0.2387792  -0.24509654 -0.24509654]
   [-0.03376466 -0.20281276 -0.24509654 -0.25175723 -0.25175723]
   [-0.03376466 -0.20281276 -0.24509654 -0.25175723 -0.25175723]]

  [[-0.01796159 -0.0322703  -0.03318112 -0.03330039 -0.03330039]
   [-0.0322703  -0.15867622 -0.1834354  -0.18714095 -0.18714095]
   [-0.03318112 -0.1834354  -0.21734976 -0.22257167 -0.22257167]
   [-0.03330039 -0.18714095 -0.22257167 -0.22805067 -0.22805067]
   [-0.03330039 -0.18714095 -0.22257167 -0.22805067 -0.22805067]]]


 [[[-0.01843298 -0.03382437 -0.03482639 -0.03495781 -0.03495781]
   [-0.03382437 -0.2049862  -0.24827782 -0.25511495 -0.25511495]
   [-0.03482639 -0.24827782 -0.31475097 -0.32582093 -0.32582093]
   [-0.03495781 -0.25511495 -0.32582093 -0.33769795 -0.33769795]
   [-0.03495781 -0.25511495 -0.32582093 -0.33769795 -0.33769795]]

  [[-0.01812983 -0.03281744 -0.03375986 -0.03388334 -0.03388334]
   [-0.03281744 -0.17284597 -0.20263971 -0.20717134 -0.20717134]
   [-0.03375986 -0.20263971 -0.24484385 -0.25149063 -0.25149063]
   [-0.03388334 -0.20717134 -0.25149063 -0.25850836 -0.25850836]
   [-0.03388334 -0.20717134 -0.25149063 -0.25850836 -0.25850836]]

  [[-0.01800816 -0.03242094 -0.03334041 -0.03346083 -0.03346083]
   [-0.03242094 -0.16238633 -0.18841182 -0.19232329 -0.19232329]
   [-0.03334041 -0.18841182 -0.22437163 -0.22994072 -0.22994072]
   [-0.03346083 -0.19232329 -0.22994072 -0.2357933  -0.2357933 ]
   [-0.03346083 -0.19232329 -0.22994072 -0.2357933  -0.2357933 ]]

  [[-0.01800816 -0.03242094 -0.03334041 -0.03346083 -0.03346083]
   [-0.03242094 -0.16238633 -0.18841182 -0.19232329 -0.19232329]
   [-0.03334041 -0.18841182 -0.22437163 -0.22994072 -0.22994072]
   [-0.03346083 -0.19232329 -0.22994072 -0.2357933  -0.2357933 ]
   [-0.03346083 -0.19232329 -0.22994072 -0.2357933  -0.2357933 ]]

  [[-0.01797459 -0.03231227 -0.0332255  -0.03334509 -0.03334509]
   [-0.03231227 -0.15969626 -0.18479997 -0.18856142 -0.18856142]
   [-0.0332255  -0.18479997 -0.21926819 -0.22458381 -0.22458381]
   [-0.03334509 -0.18856142 -0.22458381 -0.23016356 -0.23016356]
   [-0.03334509 -0.18856142 -0.22458381 -0.23016356 -0.23016356]]

  [[-0.01784216 -0.03188683 -0.03277584 -0.03289222 -0.03289222]
   [-0.03188683 -0.14981728 -0.1716984  -0.17494073 -0.17494073]
   [-0.03277584 -0.1716984  -0.20106424 -0.2055249  -0.2055249 ]
   [-0.03289222 -0.17494073 -0.2055249  -0.21018797 -0.21018797]
   [-0.03289222 -0.17494073 -0.2055249  -0.21018797 -0.21018797]]]


 [[[-0.01843298 -0.03382437 -0.03482639 -0.03495781 -0.03495781]
   [-0.03382437 -0.2049862  -0.24827782 -0.25511495 -0.25511495]
   [-0.03482639 -0.24827782 -0.31475097 -0.32582093 -0.32582093]
   [-0.03495781 -0.25511495 -0.32582093 -0.33769795 -0.33769795]
   [-0.03495781 -0.25511495 -0.32582093 -0.33769795 -0.33769795]]

  [[-0.01812983 -0.03281744 -0.03375986 -0.03388334 -0.03388334]
   [-0.03281744 -0.17284597 -0.20263971 -0.20717134 -0.20717134]
   [-0.03375986 -0.20263971 -0.24484385 -0.25149063 -0.25149063]
   [-0.03388334 -0.20717134 -0.25149063 -0.25850836 -0.25850836]
   [-0.03388334 -0.20717134 -0.25149063 -0.25850836 -0.25850836]]

  [[-0.01800816 -0.03242094 -0.03334041 -0.03346083 -0.03346083]
   [-0.03242094 -0.16238633 -0.18841182 -0.19232329 -0.19232329]
   [-0.03334041 -0.18841182 -0.22437163 -0.22994072 -0.22994072]
   [-0.03346083 -0.19232329 -0.22994072 -0.2357933  -0.2357933 ]
   [-0.03346083 -0.19232329 -0.22994072 -0.2357933  -0.2357933 ]]

  [[-0.01800816 -0.03242094 -0.03334041 -0.03346083 -0.03346083]
   [-0.03242094 -0.16238633 -0.18841182 -0.19232329 -0.19232329]
   [-0.03334041 -0.18841182 -0.22437163 -0.22994072 -0.22994072]
   [-0.03346083 -0.19232329 -0.22994072 -0.2357933  -0.2357933 ]
   [-0.03346083 -0.19232329 -0.22994072 -0.2357933  -0.2357933 ]]

  [[-0.01797459 -0.03231227 -0.0332255  -0.03334509 -0.03334509]
   [-0.03231227 -0.15969626 -0.18479997 -0.18856142 -0.18856142]
   [-0.0332255  -0.18479997 -0.21926819 -0.22458381 -0.22458381]
   [-0.03334509 -0.18856142 -0.22458381 -0.23016356 -0.23016356]
   [-0.03334509 -0.18856142 -0.22458381 -0.23016356 -0.23016356]]

  [[-0.01784216 -0.03188683 -0.03277584 -0.03289222 -0.03289222]
   [-0.03188683 -0.14981728 -0.1716984  -0.17494073 -0.17494073]
   [-0.03277584 -0.1716984  -0.20106424 -0.2055249  -0.2055249 ]
   [-0.03289222 -0.17494073 -0.2055249  -0.21018797 -0.21018797]
   [-0.03289222 -0.17494073 -0.2055249  -0.21018797 -0.21018797]]]


 [[[-0.0183978  -0.0337061  -0.03470103 -0.0348315  -0.0348315 ]
   [-0.0337061  -0.20071813 -0.24204403 -0.24853764 -0.24853764]
   [-0.03470103 -0.24204403 -0.30479919 -0.31516867 -0.31516867]
   [-0.0348315  -0.24853764 -0.31516867 -0.32626855 -0.32626855]
   [-0.0348315  -0.24853764 -0.31516867 -0.32626855 -0.32626855]]

  [[-0.0180958  -0.0327061  -0.03364205 -0.03376466 -0.03376466]
   [-0.0327061  -0.16980144 -0.19846781 -0.20281276 -0.20281276]
   [-0.03364205 -0.19846781 -0.2387792  -0.24509654 -0.24509654]
   [-0.03376466 -0.20281276 -0.24509654 -0.25175723 -0.25175723]
   [-0.03376466 -0.20281276 -0.24509654 -0.25175723 -0.25175723]]

  [[-0.01797459 -0.03231227 -0.0332255  -0.03334509 -0.03334509]
   [-0.03231227 -0.15969626 -0.18479997 -0.18856142 -0.18856142]
   [-0.0332255  -0.18479997 -0.21926819 -0.22458381 -0.22458381]
   [-0.03334509 -0.18856142 -0.22458381 -0.23016356 -0.23016356]
   [-0.03334509 -0.18856142 -0.22458381 -0.23016356 -0.23016356]]

  [[-0.01797459 -0.03231227 -0.0332255  -0.03334509 -0.03334509]
   [-0.03231227 -0.15969626 -0.18479997 -0.18856142 -0.18856142]
   [-0.0332255  -0.18479997 -0.21926819 -0.22458381 -0.22458381]
   [-0.03334509 -0.18856142 -0.22458381 -0.23016356 -0.23016356]
   [-0.03334509 -0.18856142 -0.22458381 -0.23016356 -0.23016356]]

  [[-0.01794113 -0.03220433 -0.03311138 -0.03323015 -0.03323015]
   [-0.03220433 -0.15709386 -0.18132399 -0.18494388 -0.18494388]
   [-0.03311138 -0.18132399 -0.21439174 -0.21947082 -0.21947082]
   [-0.03323015 -0.18494388 -0.21947082 -0.22479639 -0.22479639]
   [-0.03323015 -0.18494388 -0.21947082 -0.22479639 -0.22479639]]

  [[-0.0178092  -0.03178171 -0.03266479 -0.03278037 -0.03278037]
   [-0.03178171 -0.14752459 -0.16869381 -0.17182262 -0.17182262]
   [-0.03266479 -0.16869381 -0.19695629 -0.2012346  -0.2012346 ]
   [-0.03278037 -0.17182262 -0.2012346  -0.20570291 -0.20570291]
   [-0.03278037 -0.17182262 -0.2012346  -0.20570291 -0.20570291]]]


 [[[-0.01825909 -0.03324343 -0.03421084 -0.03433765 -0.03433765]
   [-0.03324343 -0.1853561  -0.22005156 -0.22540569 -0.22540569]
   [-0.03421084 -0.22005156 -0.27072696 -0.2788767  -0.2788767 ]
   [-0.03433765 -0.22540569 -0.2788767  -0.28753234 -0.28753234]
   [-0.03433765 -0.22540569 -0.2788767  -0.28753234 -0.28753234]]

  [[-0.01796159 -0.0322703  -0.03318112 -0.03330039 -0.03330039]
   [-0.0322703  -0.15867622 -0.1834354  -0.18714095 -0.18714095]
   [-0.03318112 -0.1834354  -0.21734976 -0.22257167 -0.22257167]
   [-0.03330039 -0.18714095 -0.22257167 -0.22805067 -0.22805067]
   [-0.03330039 -0.18714095 -0.22257167 -0.22805067 -0.22805067]]

  [[-0.01784216 -0.03188683 -0.03277584 -0.03289222 -0.03289222]
   [-0.03188683 -0.14981728 -0.1716984  -0.17494073 -0.17494073]
   [-0.03277584 -0.1716984  -0.20106424 -0.2055249  -0.2055249 ]
   [-0.03289222 -0.17494073 -0.2055249  -0.21018797 -0.21018797]
   [-0.03289222 -0.17494073 -0.2055249  -0.21018797 -0.21018797]]

  [[-0.01784216 -0.03188683 -0.03277584 -0.03289222 -0.03289222]
   [-0.03188683 -0.14981728 -0.1716984  -0.17494073 -0.17494073]
   [-0.03277584 -0.1716984  -0.20106424 -0.2055249  -0.2055249 ]
   [-0.03289222 -0.17494073 -0.2055249  -0.21018797 -0.21018797]
   [-0.03289222 -0.17494073 -0.2055249  -0.21018797 -0.21018797]]

  [[-0.0178092  -0.03178171 -0.03266479 -0.03278037 -0.03278037]
   [-0.03178171 -0.14752459 -0.16869381 -0.17182262 -0.17182262]
   [-0.03266479 -0.16869381 -0.19695629 -0.2012346  -0.2012346 ]
   [-0.03278037 -0.17182262 -0.2012346  -0.20570291 -0.20570291]
   [-0.03278037 -0.17182262 -0.2012346  -0.20570291 -0.20570291]]

  [[-0.0176792  -0.03137004 -0.03223008 -0.0323426  -0.0323426 ]
   [-0.03137004 -0.13905419 -0.15770857 -0.16043986 -0.16043986]
   [-0.03223008 -0.15770857 -0.18214344 -0.18579645 -0.18579645]
   [-0.0323426  -0.16043986 -0.18579645 -0.18959899 -0.18959899]
   [-0.0323426  -0.16043986 -0.18579645 -0.18959899 -0.18959899]]]] (6, 6, 5, 5)
hf energy: -99.98340893328248
nuclear repulsion: 5.193669463773174
(11, 11, 11, 11)
mp2aaaa/bbbbE: 0.0 0.0 0.0
initial energy: -105.17707839705561
    ==> CCSDT amplitude equations <==

     Iter              Corr. Energy                 |dE|    |dT|

there zww hi
still here
hi
mp2aaaa/bbbbE: -0.01636273329303561 -0.01636273329212697 -0.09596875299942059
        0      -0.128694219585       0.128694219585 

there zww hi
still here
hi
mp2aaaa/bbbbE: -0.014241027159790663 -0.014241027158856895 -0.10024954631281463
        1      -0.128731600631       0.000037381047 

there zww hi
still here
hi
mp2aaaa/bbbbE: -0.013779062217621745 -0.01377906221667733 -0.10276896638944691
        2      -0.130327090824       0.001595490192 

there zww hi
still here
hi
mp2aaaa/bbbbE: -0.01359264988193848 -0.013592649880990931 -0.1036256506716632
        3      -0.130810950435       0.000483859611 

there zww hi
still here
hi
mp2aaaa/bbbbE: -0.013520598574399129 -0.013520598573450452 -0.10394273445580704
        4      -0.130983931604       0.000172981169 

there zww hi
still here
hi
mp2aaaa/bbbbE: -0.013473941066334576 -0.01347394106538522 -0.10414072161072124
        5      -0.131088603742       0.000104672139 

there zww hi
still here
hi
mp2aaaa/bbbbE: -0.01347393850370853 -0.013473938502759146 -0.10413810246355569
        6      -0.131085979470       0.000002624272 

there zww hi
still here
hi
mp2aaaa/bbbbE: -0.013473955777973962 -0.013473955777024576 -0.10413805336451974
        7      -0.131085964919       0.000000014550 

there zww hi
still here
hi
mp2aaaa/bbbbE: -0.013473961654877038 -0.013473961653927646 -0.10413807386522674
        8      -0.131085997174       0.000000032255 

there zww hi
still here
hi
mp2aaaa/bbbbE: -0.01347396217569369 -0.0134739621747443 -0.10413807192285109
        9      -0.131085996273       0.000000000901 

there zww hi
still here
hi
mp2aaaa/bbbbE: -0.013473962136008396 -0.013473962135059005 -0.1041380719834965
       10      -0.131085996254       0.000000000019 

there zww hi
still here
hi
mp2aaaa/bbbbE: -0.013473962151549898 -0.013473962150600514 -0.10413807195822612
       11      -0.131085996260       0.000000000006 

there zww hi
still here
hi
mp2aaaa/bbbbE: -0.01347396214918045 -0.013473962148231062 -0.10413807196516099
       12      -0.131085996263       0.000000000002 

there zww hi
still here
hi
mp2aaaa/bbbbE: -0.013473962149012666 -0.01347396214806326 -0.10413807196500714
       13      -0.131085996262       0.000000000000 








CCDQf-2  correlation contribution: -0.13108599626202988
CCDQf-2  energy: -100.1144949295445
