#INFO: **** input file is /blue/bartlett/z.windom/MOLSSI_develop/test/build_T2_interfaces/RECORDS/verify_spin_CCD/pyscfCode/N2_equil_UHF/run_pyscf.py ****
import numpy as np
import pyscf
from pyscf import ao2mo


def main():
    """ Initialize calculation details, 2e- integrals, Fock matrix, etc """

    # run pyscf for some reason
    basis = '6-31G'#'ccpvdz'
    mol = pyscf.M(
        atom='H 0 0 0; F 0 0 {}'.format(0.917), #'N 0 0 0; N 0 0 {}'.format(2.0749193),
        #atom='Be 0 0 0'
        verbose=5,
        #unit='b',
        basis=basis)


    mf = mol.UHF()
    mf.init_guess='1e'
    mf.conv_tol_grad=1E-10
    mf.run()

    from pyscf.lib import logger

    def stable_opt_internal(mf):
        log = logger.new_logger(mf)
        mo1, _, stable, _ = mf.stability(return_status=True)
        cyc = 0
        while (not stable and cyc < 10):
            log.note('Try to optimize orbitals until stable, attempt %d' % cyc)
            dm1 = mf.make_rdm1(mo1, mf.mo_occ)
            mf = mf.run(dm1)
            mo1, _, stable, _ = mf.stability(return_status=True)
            cyc += 1
        if not stable:
            log.note('Stability Opt failed after %d attempts' % cyc)
        return mf
    print('loop example')
    mf = stable_opt_internal(mf)

    orb=mf.mo_coeff
    print(np.shape(mf.get_hcore()))
    print(np.shape(orb))
    import run_ccd as run_ccd 
 
    cc_runtype={"ccdType":"CCD"}

    run_ccd.ccd_main(mf,mol,orb,cc_runtype)


main()
#INFO: ******************** input file end ********************


System: uname_result(system='Linux', node='login5.ufhpc', release='3.10.0-1160.80.1.el7.x86_64', version='#1 SMP Sat Oct 8 18:13:21 UTC 2022', machine='x86_64', processor='x86_64')  Threads 28
Python 3.7.12 | packaged by conda-forge | (default, Oct 26 2021, 06:08:21) 
[GCC 9.4.0]
numpy 1.21.6  scipy 1.7.3
Date: Tue Jan 31 22:17:52 2023
PySCF version 2.1.1
PySCF path  /blue/bartlett/z.windom/MOLSSI_develop/T2method/new/pyscf
GIT ORIG_HEAD 41535e74b1de6eb21fc9b6a13c089d6cd55b35d7
GIT HEAD (branch master) ff882f83f5730ea5610d52cc5b88d278f9b71da7

[ENV] PYSCF_INC_DIR /home/z.windom/libxc-4.3.4
[CONFIG] conf_file /home/z.windom/.pyscf_conf.py
[INPUT] verbose = 5
[INPUT] max_memory = 4000 
[INPUT] num. atoms = 2
[INPUT] num. electrons = 10
[INPUT] charge = 0
[INPUT] spin (= nelec alpha-beta = 2S) = 0
[INPUT] symmetry False subgroup None
[INPUT] Mole.unit = angstrom
[INPUT] Symbol           X                Y                Z      unit          X                Y                Z       unit  Magmom
[INPUT]  1 H      0.000000000000   0.000000000000   0.000000000000 AA    0.000000000000   0.000000000000   0.000000000000 Bohr   0.0
[INPUT]  2 F      0.000000000000   0.000000000000   0.917000000000 AA    0.000000000000   0.000000000000   1.732878856226 Bohr   0.0
[INPUT] ---------------- BASIS SET ---------------- 
[INPUT] l, kappa, [nprim/nctr], expnt,             c_1 c_2 ...
[INPUT] H
[INPUT] 0    0    [3    /1   ]  18.731137         0.0334946
                                2.8253937         0.23472695
                                0.6401217         0.81375733
[INPUT] 0    0    [1    /1   ]  0.1612778            1
[INPUT] F
[INPUT] 0    0    [6    /1   ]  7001.71309        0.0018196169
                                1051.36609        0.0139160796
                                239.28569         0.0684053245
                                67.3974453        0.23318576
                                21.5199573        0.471267439
                                7.4031013         0.356618546
[INPUT] 0    0    [3    /1   ]  20.8479528        -0.108506975
                                4.80830834        -0.146451658
                                1.34406986        1.12868858
[INPUT] 0    0    [1    /1   ]  0.358151393          1
[INPUT] 1    0    [3    /1   ]  20.8479528        0.0716287243
                                4.80830834        0.345912103
                                1.34406986        0.722469957
[INPUT] 1    0    [1    /1   ]  0.358151393          1

nuclear repulsion = 5.19366946377317
number of shells = 7
number of NR pGTOs = 26
number of NR cGTOs = 11
basis = 6-31G
ecp = {}
CPU time:         3.42


******** <class 'pyscf.scf.uhf.UHF'> ********
method = UHF
initial guess = 1e
damping factor = 0
level_shift factor = 0
DIIS = <class 'pyscf.scf.diis.CDIIS'>
diis_start_cycle = 1
diis_space = 8
SCF conv_tol = 1e-09
SCF conv_tol_grad = 1e-10
SCF max_cycles = 50
direct_scf = True
direct_scf_tol = 1e-13
chkfile to save SCF result = /blue/bartlett/z.windom/MOLSSI_develop/test/build_T2_interfaces/RECORDS/verify_spin_CCD/pyscfCode/N2_equil_UHF/tmp2_62p_yu
max_memory 4000 MB (current use 85 MB)
number electrons alpha = 5  beta = 5
Initial guess from hcore.
  alpha nocc = 5  HOMO = -10.0936607887869  LUMO = -5.09275799553285
  beta  nocc = 5  HOMO = -10.0936607887869  LUMO = -5.09275799553285
  alpha mo_energy =
[-41.02296897 -10.44106609 -10.09553976 -10.09366079 -10.09366079
  -5.092758    -4.46049268  -4.406218    -4.406218    -3.81136747
  -2.66937615]
  beta  mo_energy =
[-41.02296897 -10.44106609 -10.09553976 -10.09366079 -10.09366079
  -5.092758    -4.46049268  -4.406218    -4.406218    -3.81136747
  -2.66937615]
multiplicity <S^2> = 0  2S+1 = 1
E1 = -163.11304118007217  Ecoul = 64.29824950165359
init E= -93.6211222146454
cond(S) = 25.594965630916704
    CPU time for initialize scf      1.84 sec, wall time      0.10 sec

WARN: alpha nocc = 5  HOMO 0.542024842708581 >= LUMO 0.542024842708582


WARN: beta  nocc = 5  HOMO 0.546137462869176 >= LUMO 0.546137462869186

  alpha mo_energy =
[-22.4812788   -0.41201957   0.13359938   0.45986465   0.54202484
   0.54202484   1.31849429   2.38135869   2.38135869   2.44055339
   2.69685047]
  beta  mo_energy =
[-22.4834938   -0.36148959   0.12811038   0.46958933   0.54613746
   0.54613746   1.31578262   2.3830793    2.3830793    2.44019944
   2.69780083]
multiplicity <S^2> = 0.045360033  2S+1 = 1.0869407
E1 = -133.40875216651506  Ecoul = 31.885187207869862
cycle= 1 E= -96.329895494872  delta_E= -2.71  |g|= 2.63  |ddm|=  6.2
    CPU time for cycle= 1      0.24 sec, wall time      0.01 sec
  alpha nocc = 5  HOMO = -1.50996761887389  LUMO = -0.168201580088022
  beta  nocc = 5  HOMO = -1.50891449744031  LUMO = -0.171927055527223
  alpha mo_energy =
[-29.30858004  -2.94533292  -2.01649425  -2.00459823  -1.50996762
  -0.16820158   0.4453095    0.49994233   0.54487679   0.91295171
   1.26147263]
  beta  mo_energy =
[-29.30769484  -2.94141591  -2.00855052  -2.00208944  -1.5089145
  -0.17192706   0.44371755   0.49961109   0.54479938   0.9094157
   1.26096089]
multiplicity <S^2> = 0.00035963805  2S+1 = 1.000719
E1 = -158.69464702842987  Ecoul = 54.8987463467475
cycle= 2 E= -98.6022312179092  delta_E= -2.27  |g|= 1.95  |ddm|= 5.35
    CPU time for cycle= 2      0.41 sec, wall time      0.02 sec
  alpha nocc = 5  HOMO = -0.610908840093858  LUMO = 0.0571349157856456
  beta  nocc = 5  HOMO = -0.610428527537269  LUMO = 0.0567977142032662
  alpha mo_energy =
[-26.6206772   -1.81408133  -0.95150163  -0.85199052  -0.61090884
   0.05713492   1.03716935   1.24078629   1.25751301   1.33573204
   1.81359133]
  beta  mo_energy =
[-26.62005609  -1.81193121  -0.94974783  -0.85093886  -0.61042853
   0.05679771   1.03482423   1.24098253   1.25778036   1.33566556
   1.81442502]
multiplicity <S^2> = 6.0403334e-05  2S+1 = 1.0001208
E1 = -152.86460948281  Ecoul = 47.7862251312084
cycle= 3 E= -99.8847148878284  delta_E= -1.28  |g|= 0.52  |ddm|= 0.87
    CPU time for cycle= 3      0.44 sec, wall time      0.02 sec
  alpha nocc = 5  HOMO = -0.654456505406727  LUMO = 0.183614890032931
  beta  nocc = 5  HOMO = -0.654052745945219  LUMO = 0.18392626420008
  alpha mo_energy =
[-26.39730488  -1.63348848  -0.78942405  -0.66107096  -0.65445651
   0.18361489   1.08649103   1.47689686   1.47769901   1.58032023
   1.98178891]
  beta  mo_energy =
[-26.39688363  -1.63246059  -0.78896724  -0.66050402  -0.65405275
   0.18392626   1.08567639   1.47717243   1.47791381   1.58068612
   1.98234414]
multiplicity <S^2> = 9.2193281e-06  2S+1 = 1.0000184
E1 = -151.00758914773067  Ecoul = 45.8348347870621
cycle= 4 E= -99.9790848968954  delta_E= -0.0944  |g|= 0.0867  |ddm|= 0.256
    CPU time for cycle= 4      0.43 sec, wall time      0.02 sec
  alpha nocc = 5  HOMO = -0.62167748948187  LUMO = 0.207608522064947
  beta  nocc = 5  HOMO = -0.621442192459276  LUMO = 0.207647270093401
  alpha mo_energy =
[-26.26604545  -1.58585299  -0.73963395  -0.62594846  -0.62167749
   0.20760852   1.11543013   1.48973691   1.49002994   1.59224978
   2.00579382]
  beta  mo_energy =
[-26.26584857  -1.58537139  -0.73914091  -0.62568456  -0.62144219
   0.20764727   1.11495308   1.48986353   1.49017746   1.59255917
   2.00601783]
multiplicity <S^2> = 2.5808441e-06  2S+1 = 1.0000052
E1 = -150.62662076330946  Ecoul = 45.449612360367055
cycle= 5 E= -99.9833389391692  delta_E= -0.00425  |g|= 0.00796  |ddm|= 0.0857
    CPU time for cycle= 5      0.47 sec, wall time      0.02 sec
  alpha nocc = 5  HOMO = -0.630876519924774  LUMO = 0.209212175322375
  beta  nocc = 5  HOMO = -0.630748382527388  LUMO = 0.209228666310828
  alpha mo_energy =
[-26.27691341  -1.59011228  -0.73994258  -0.63157347  -0.63087652
   0.20921218   1.11661484   1.48897079   1.48909922   1.59226914
   2.00552501]
  beta  mo_energy =
[-26.27680304  -1.58986974  -0.73960402  -0.63144036  -0.63074838
   0.20922867   1.11637752   1.48904639   1.48917112   1.59247812
   2.00564367]
multiplicity <S^2> = 9.2145345e-07  2S+1 = 1.0000018
E1 = -150.62798350722795  Ecoul = 45.45090731942251
cycle= 6 E= -99.9834067240323  delta_E= -6.78e-05  |g|= 0.00185  |ddm|= 0.0128
    CPU time for cycle= 6      0.15 sec, wall time      0.01 sec
  alpha nocc = 5  HOMO = -0.631187398775208  LUMO = 0.209630100864212
  beta  nocc = 5  HOMO = -0.631116627230533  LUMO = 0.209638955258567
  alpha mo_energy =
[-26.27625576  -1.58993603  -0.73934128  -0.63134261  -0.6311874
   0.2096301    1.11684182   1.48924868   1.48930154   1.59292739
   2.00592544]
  beta  mo_energy =
[-26.27619342  -1.58979829  -0.73913415  -0.63127117  -0.63111663
   0.20963896   1.116704     1.48928769   1.4893404    1.59305452
   2.00599137]
multiplicity <S^2> = 3.1793743e-07  2S+1 = 1.0000006
E1 = -150.6230798892659  Ecoul = 45.446001612211504
cycle= 7 E= -99.9834088132812  delta_E= -2.09e-06  |g|= 0.000462  |ddm|= 0.00188
    CPU time for cycle= 7      0.15 sec, wall time      0.01 sec
  alpha nocc = 5  HOMO = -0.631017609669874  LUMO = 0.209686389018212
  beta  nocc = 5  HOMO = -0.630980275898031  LUMO = 0.209691940596401
  alpha mo_energy =
[-26.27567221  -1.58961559  -0.73900083  -0.63102357  -0.63101761
   0.20968639   1.11684973   1.48947172   1.4894733    1.59318649
   2.00610605]
  beta  mo_energy =
[-26.27563838  -1.58954105  -0.73888826  -0.63098618  -0.63098028
   0.20969194   1.11677432   1.489492     1.48949358   1.59325652
   2.00614284]
multiplicity <S^2> = 9.5540392e-08  2S+1 = 1.0000002
E1 = -150.62133731498594  Ecoul = 45.44425893760548
cycle= 8 E= -99.9834089136073  delta_E= -1e-07  |g|= 0.000102  |ddm|= 0.000362
    CPU time for cycle= 8      0.15 sec, wall time      0.01 sec
  alpha nocc = 5  HOMO = -0.631008254894752  LUMO = 0.209712426513902
  beta  nocc = 5  HOMO = -0.631007452930986  LUMO = 0.209712549801648
  alpha mo_energy =
[-26.27567766  -1.58958811  -0.73895954  -0.63104065  -0.63100825
   0.20971243   1.11683053   1.48948544   1.48949355   1.59322453
   2.00613229]
  beta  mo_energy =
[-26.27567626  -1.58958462  -0.738953    -0.63103969  -0.63100745
   0.20971255   1.11682617   1.48948575   1.48949376   1.5932285
   2.00613422]
multiplicity <S^2> = 3.2881875e-10  2S+1 = 1
E1 = -150.62121678267692  Ecoul = 45.44413838686852
cycle= 9 E= -99.9834089320352  delta_E= -1.84e-08  |g|= 5.24e-05  |ddm|= 0.000289
    CPU time for cycle= 9      0.14 sec, wall time      0.01 sec
  alpha nocc = 5  HOMO = -0.631031496057845  LUMO = 0.209691930127253
  beta  nocc = 5  HOMO = -0.631031625398983  LUMO = 0.209692012198986
  alpha mo_energy =
[-26.27571846  -1.58960807  -0.73897616  -0.63103369  -0.6310315
   0.20969193   1.11681305   1.4894688    1.48947062   1.5932031
   2.00611246]
  beta  mo_energy =
[-26.27571838  -1.58960779  -0.73897545  -0.6310338   -0.63103163
   0.20969201   1.11681243   1.48946867   1.48947047   1.59320359
   2.00611272]
multiplicity <S^2> = 8.2156504e-12  2S+1 = 1
E1 = -150.62144886581487  Ecoul = 45.44437046876936
cycle= 10 E= -99.9834089332723  delta_E= -1.24e-09  |g|= 3.93e-06  |ddm|= 5.12e-05
    CPU time for cycle= 10      0.14 sec, wall time      0.01 sec
  alpha nocc = 5  HOMO = -0.631030749724432  LUMO = 0.209693690942481
  beta  nocc = 5  HOMO = -0.631030890080972  LUMO = 0.209693674492375
  alpha mo_energy =
[-26.27571501  -1.58960666  -0.73897568  -0.63103117  -0.63103075
   0.20969369   1.11681437   1.48947016   1.48947049   1.59320397
   2.00611371]
  beta  mo_energy =
[-26.27571506  -1.58960672  -0.73897562  -0.63103131  -0.63103089
   0.20969367   1.1168143    1.48947005   1.48947038   1.59320399
   2.00611371]
multiplicity <S^2> = 2.6822988e-13  2S+1 = 1
E1 = -150.62143777811718  Ecoul = 45.44435938106187
cycle= 11 E= -99.9834089332821  delta_E= -9.81e-12  |g|= 6.4e-07  |ddm|= 3.95e-06
    CPU time for cycle= 11      0.14 sec, wall time      0.01 sec
  alpha nocc = 5  HOMO = -0.631031063721636  LUMO = 0.209693697689679
  beta  nocc = 5  HOMO = -0.631031112147526  LUMO = 0.209693694706097
  alpha mo_energy =
[-26.27571494  -1.58960666  -0.7389755   -0.63103112  -0.63103106
   0.2096937    1.11681448   1.48947019   1.48947023   1.5932039
   2.00611371]
  beta  mo_energy =
[-26.27571496  -1.58960669  -0.7389755   -0.63103117  -0.63103111
   0.20969369   1.11681447   1.48947016   1.4894702    1.59320389
   2.00611371]
multiplicity <S^2> = 1.4210855e-14  2S+1 = 1
E1 = -150.62143801898634  Ecoul = 45.4443596219308
cycle= 12 E= -99.9834089332824  delta_E= -2.27e-13  |g|= 9.08e-08  |ddm|= 7.39e-07
    CPU time for cycle= 12      0.13 sec, wall time      0.01 sec
  alpha nocc = 5  HOMO = -0.631031106792303  LUMO = 0.209693701278438
  beta  nocc = 5  HOMO = -0.631031126726452  LUMO = 0.209693699677616
  alpha mo_energy =
[-26.27571496  -1.58960667  -0.73897552  -0.63103112  -0.63103111
   0.2096937    1.11681447   1.48947019   1.4894702    1.5932039
   2.00611371]
  beta  mo_energy =
[-26.27571497  -1.58960668  -0.73897552  -0.63103114  -0.63103113
   0.2096937    1.11681447   1.48947018   1.48947019   1.5932039
   2.00611371]
multiplicity <S^2> = 3.5527137e-15  2S+1 = 1
E1 = -150.6214379763666  Ecoul = 45.44435957931097
cycle= 13 E= -99.9834089332824  delta_E= -8.53e-14  |g|= 3.01e-08  |ddm|= 1.01e-07
    CPU time for cycle= 13      0.14 sec, wall time      0.01 sec
Linear dependence found in DIIS error vectors.
  alpha nocc = 5  HOMO = -0.631031113173828  LUMO = 0.209693700122255
  beta  nocc = 5  HOMO = -0.631031126803024  LUMO = 0.209693699031556
  alpha mo_energy =
[-26.27571496  -1.58960667  -0.73897552  -0.63103112  -0.63103111
   0.2096937    1.11681447   1.48947019   1.4894702    1.5932039
   2.00611371]
  beta  mo_energy =
[-26.27571497  -1.58960668  -0.73897552  -0.63103114  -0.63103113
   0.2096937    1.11681447   1.48947018   1.48947019   1.5932039
   2.00611371]
multiplicity <S^2> = 1.7763568e-15  2S+1 = 1
E1 = -150.6214379770301  Ecoul = 45.44435957997456
cycle= 14 E= -99.9834089332824  delta_E= 8.53e-14  |g|= 1.98e-08  |ddm|= 1.54e-08
    CPU time for cycle= 14      0.15 sec, wall time      0.01 sec
Linear dependence found in DIIS error vectors.
  alpha nocc = 5  HOMO = -0.631031115689216  LUMO = 0.209693699645271
  beta  nocc = 5  HOMO = -0.631031126531454  LUMO = 0.209693698781015
  alpha mo_energy =
[-26.27571496  -1.58960667  -0.73897552  -0.63103112  -0.63103112
   0.2096937    1.11681447   1.48947019   1.4894702    1.5932039
   2.00611371]
  beta  mo_energy =
[-26.27571497  -1.58960668  -0.73897552  -0.63103113  -0.63103113
   0.2096937    1.11681447   1.48947018   1.48947019   1.5932039
   2.00611371]
multiplicity <S^2> = 0  2S+1 = 1
E1 = -150.62143797667272  Ecoul = 45.4443595796171
cycle= 15 E= -99.9834089332824  delta_E= -8.53e-14  |g|= 1.55e-08  |ddm|= 6.63e-09
    CPU time for cycle= 15      0.14 sec, wall time      0.01 sec
Linear dependence found in DIIS error vectors.
  alpha nocc = 5  HOMO = -0.631031117012956  LUMO = 0.20969369915361
  beta  nocc = 5  HOMO = -0.631031126278151  LUMO = 0.20969369841643
  alpha mo_energy =
[-26.27571496  -1.58960667  -0.73897552  -0.63103112  -0.63103112
   0.2096937    1.11681447   1.48947019   1.48947019   1.5932039
   2.00611371]
  beta  mo_energy =
[-26.27571497  -1.58960668  -0.73897552  -0.63103113  -0.63103113
   0.2096937    1.11681447   1.48947018   1.48947019   1.5932039
   2.00611371]
multiplicity <S^2> = 1.7763568e-15  2S+1 = 1
E1 = -150.6214379798442  Ecoul = 45.44435958278859
cycle= 16 E= -99.9834089332824  delta_E= 2.84e-14  |g|= 1.3e-08  |ddm|= 4.32e-09
    CPU time for cycle= 16      0.15 sec, wall time      0.01 sec
Linear dependence found in DIIS error vectors.
  alpha nocc = 5  HOMO = -0.631031117851495  LUMO = 0.20969369894684
  beta  nocc = 5  HOMO = -0.631031125522705  LUMO = 0.209693698376452
  alpha mo_energy =
[-26.27571496  -1.58960667  -0.73897552  -0.63103112  -0.63103112
   0.2096937    1.11681447   1.48947019   1.48947019   1.5932039
   2.00611371]
  beta  mo_energy =
[-26.27571497  -1.58960668  -0.73897552  -0.63103113  -0.63103113
   0.2096937    1.11681447   1.48947018   1.48947019   1.5932039
   2.00611371]
multiplicity <S^2> = 8.8817842e-16  2S+1 = 1
E1 = -150.62143798004828  Ecoul = 45.444359582992696
cycle= 17 E= -99.9834089332824  delta_E=    0  |g|= 1.15e-08  |ddm|= 5.44e-09
    CPU time for cycle= 17      0.19 sec, wall time      0.01 sec
Linear dependence found in DIIS error vectors.
  alpha nocc = 5  HOMO = -0.631031116139546  LUMO = 0.209693698991124
  beta  nocc = 5  HOMO = -0.631031124043667  LUMO = 0.209693698359107
  alpha mo_energy =
[-26.27571496  -1.58960667  -0.73897552  -0.63103112  -0.63103112
   0.2096937    1.11681447   1.48947019   1.4894702    1.5932039
   2.00611371]
  beta  mo_energy =
[-26.27571497  -1.58960668  -0.73897552  -0.63103113  -0.63103112
   0.2096937    1.11681447   1.48947019   1.48947019   1.5932039
   2.00611371]
multiplicity <S^2> = -2.6645353e-15  2S+1 = 1
E1 = -150.6214379730153  Ecoul = 45.44435957595961
cycle= 18 E= -99.9834089332825  delta_E= -9.95e-14  |g|= 1.12e-08  |ddm|= 5.11e-09
    CPU time for cycle= 18      0.17 sec, wall time      0.01 sec
Linear dependence found in DIIS error vectors.
  alpha nocc = 5  HOMO = -0.631031116978782  LUMO = 0.209693698912687
  beta  nocc = 5  HOMO = -0.631031124348132  LUMO = 0.209693698321805
  alpha mo_energy =
[-26.27571496  -1.58960667  -0.73897552  -0.63103112  -0.63103112
   0.2096937    1.11681447   1.48947019   1.48947019   1.5932039
   2.00611371]
  beta  mo_energy =
[-26.27571497  -1.58960668  -0.73897552  -0.63103113  -0.63103112
   0.2096937    1.11681447   1.48947019   1.48947019   1.5932039
   2.00611371]
multiplicity <S^2> = -3.5527137e-15  2S+1 = 1
E1 = -150.62143797536908  Ecoul = 45.444359578313446
cycle= 19 E= -99.9834089332824  delta_E= 7.11e-14  |g|= 1.03e-08  |ddm|= 1.33e-09
    CPU time for cycle= 19      0.18 sec, wall time      0.01 sec
Linear dependence found in DIIS error vectors.
  alpha nocc = 5  HOMO = -0.631031116349915  LUMO = 0.209693698748231
  beta  nocc = 5  HOMO = -0.631031124221081  LUMO = 0.209693698126433
  alpha mo_energy =
[-26.27571496  -1.58960667  -0.73897552  -0.63103112  -0.63103112
   0.2096937    1.11681447   1.48947019   1.4894702    1.5932039
   2.00611371]
  beta  mo_energy =
[-26.27571497  -1.58960668  -0.73897552  -0.63103113  -0.63103112
   0.2096937    1.11681447   1.48947019   1.48947019   1.5932039
   2.00611371]
multiplicity <S^2> = 1.7763568e-15  2S+1 = 1
E1 = -150.6214379773833  Ecoul = 45.444359580327685
cycle= 20 E= -99.9834089332824  delta_E= 1.42e-14  |g|= 1.11e-08  |ddm|= 4.1e-09
    CPU time for cycle= 20      0.19 sec, wall time      0.01 sec
Linear dependence found in DIIS error vectors.
  alpha nocc = 5  HOMO = -0.631031119606279  LUMO = 0.209693698584052
  beta  nocc = 5  HOMO = -0.63103112492824  LUMO = 0.209693698168581
  alpha mo_energy =
[-26.27571496  -1.58960667  -0.73897552  -0.63103112  -0.63103112
   0.2096937    1.11681447   1.48947019   1.48947019   1.5932039
   2.00611371]
  beta  mo_energy =
[-26.27571497  -1.58960668  -0.73897552  -0.63103113  -0.63103112
   0.2096937    1.11681447   1.48947019   1.48947019   1.5932039
   2.00611371]
multiplicity <S^2> = -8.8817842e-16  2S+1 = 1
E1 = -150.62143797839485  Ecoul = 45.44435958133923
cycle= 21 E= -99.9834089332824  delta_E= -1.42e-14  |g|= 7.05e-09  |ddm|= 6.55e-09
    CPU time for cycle= 21      0.16 sec, wall time      0.01 sec
Linear dependence found in DIIS error vectors.
  alpha nocc = 5  HOMO = -0.631031120339902  LUMO = 0.209693698513727
  beta  nocc = 5  HOMO = -0.631031124737636  LUMO = 0.209693698172419
  alpha mo_energy =
[-26.27571496  -1.58960667  -0.73897552  -0.63103112  -0.63103112
   0.2096937    1.11681447   1.48947019   1.48947019   1.5932039
   2.00611371]
  beta  mo_energy =
[-26.27571497  -1.58960668  -0.73897552  -0.63103113  -0.63103112
   0.2096937    1.11681447   1.48947019   1.48947019   1.5932039
   2.00611371]
multiplicity <S^2> = 0  2S+1 = 1
E1 = -150.62143797830237  Ecoul = 45.4443595812468
cycle= 22 E= -99.9834089332824  delta_E= 5.68e-14  |g|= 5.76e-09  |ddm|= 2e-09
    CPU time for cycle= 22      0.17 sec, wall time      0.01 sec
Linear dependence found in DIIS error vectors.
  alpha nocc = 5  HOMO = -0.631031120767374  LUMO = 0.209693698469258
  beta  nocc = 5  HOMO = -0.63103112458026  LUMO = 0.209693698174741
  alpha mo_energy =
[-26.27571496  -1.58960667  -0.73897552  -0.63103112  -0.63103112
   0.2096937    1.11681447   1.48947019   1.48947019   1.5932039
   2.00611371]
  beta  mo_energy =
[-26.27571497  -1.58960668  -0.73897552  -0.63103113  -0.63103112
   0.2096937    1.11681447   1.48947019   1.48947019   1.5932039
   2.00611371]
multiplicity <S^2> = 1.7763568e-15  2S+1 = 1
E1 = -150.62143797828077  Ecoul = 45.44435958122517
cycle= 23 E= -99.9834089332824  delta_E= -2.84e-14  |g|= 4.97e-09  |ddm|= 1.22e-09
    CPU time for cycle= 23      0.17 sec, wall time      0.01 sec
Linear dependence found in DIIS error vectors.
  alpha nocc = 5  HOMO = -0.63103112106794  LUMO = 0.209693698433884
  beta  nocc = 5  HOMO = -0.631031124434681  LUMO = 0.209693698175118
  alpha mo_energy =
[-26.27571497  -1.58960667  -0.73897552  -0.63103112  -0.63103112
   0.2096937    1.11681447   1.48947019   1.48947019   1.5932039
   2.00611371]
  beta  mo_energy =
[-26.27571497  -1.58960668  -0.73897552  -0.63103113  -0.63103112
   0.2096937    1.11681447   1.48947019   1.48947019   1.5932039
   2.00611371]
multiplicity <S^2> = 8.8817842e-16  2S+1 = 1
E1 = -150.62143797825064  Ecoul = 45.44435958119499
cycle= 24 E= -99.9834089332825  delta_E= -5.68e-14  |g|= 4.39e-09  |ddm|= 9.12e-10
    CPU time for cycle= 24      0.16 sec, wall time      0.01 sec
Linear dependence found in DIIS error vectors.
  alpha nocc = 5  HOMO = -0.631031121347194  LUMO = 0.209693698408909
  beta  nocc = 5  HOMO = -0.631031124337348  LUMO = 0.209693698180649
  alpha mo_energy =
[-26.27571497  -1.58960667  -0.73897552  -0.63103112  -0.63103112
   0.2096937    1.11681447   1.48947019   1.48947019   1.5932039
   2.00611371]
  beta  mo_energy =
[-26.27571497  -1.58960668  -0.73897552  -0.63103113  -0.63103112
   0.2096937    1.11681447   1.48947019   1.48947019   1.5932039
   2.00611371]
multiplicity <S^2> = 0  2S+1 = 1
E1 = -150.62143797836308  Ecoul = 45.44435958130745
cycle= 25 E= -99.9834089332824  delta_E= 2.84e-14  |g|= 3.91e-09  |ddm|= 7.39e-10
    CPU time for cycle= 25      0.15 sec, wall time      0.01 sec
Linear dependence found in DIIS error vectors.
  alpha nocc = 5  HOMO = -0.631031121576217  LUMO = 0.209693698392455
  beta  nocc = 5  HOMO = -0.631031124280536  LUMO = 0.209693698184068
  alpha mo_energy =
[-26.27571497  -1.58960667  -0.73897552  -0.63103112  -0.63103112
   0.2096937    1.11681447   1.48947019   1.48947019   1.5932039
   2.00611371]
  beta  mo_energy =
[-26.27571497  -1.58960668  -0.73897552  -0.63103113  -0.63103112
   0.2096937    1.11681447   1.48947019   1.48947019   1.5932039
   2.00611371]
multiplicity <S^2> = -1.7763568e-15  2S+1 = 1
E1 = -150.62143797845545  Ecoul = 45.44435958139985
cycle= 26 E= -99.9834089332824  delta_E= 2.84e-14  |g|= 3.49e-09  |ddm|= 7.77e-10
    CPU time for cycle= 26      0.18 sec, wall time      0.01 sec
Linear dependence found in DIIS error vectors.
  alpha nocc = 5  HOMO = -0.63103112177951  LUMO = 0.209693698386872
  beta  nocc = 5  HOMO = -0.631031124153842  LUMO = 0.209693698204937
  alpha mo_energy =
[-26.27571497  -1.58960667  -0.73897552  -0.63103112  -0.63103112
   0.2096937    1.11681447   1.48947019   1.48947019   1.5932039
   2.00611371]
  beta  mo_energy =
[-26.27571497  -1.58960668  -0.73897552  -0.63103113  -0.63103112
   0.2096937    1.11681447   1.48947019   1.48947019   1.5932039
   2.00611371]
multiplicity <S^2> = -1.7763568e-15  2S+1 = 1
E1 = -150.6214379780144  Ecoul = 45.44435958095879
cycle= 27 E= -99.9834089332824  delta_E= -1.42e-14  |g|= 3.06e-09  |ddm|= 6.75e-10
    CPU time for cycle= 27      0.18 sec, wall time      0.01 sec
Linear dependence found in DIIS error vectors.
  alpha nocc = 5  HOMO = -0.631031121995036  LUMO = 0.209693698377312
  beta  nocc = 5  HOMO = -0.63103112405174  LUMO = 0.209693698221009
  alpha mo_energy =
[-26.27571497  -1.58960667  -0.73897552  -0.63103112  -0.63103112
   0.2096937    1.11681447   1.48947019   1.48947019   1.5932039
   2.00611371]
  beta  mo_energy =
[-26.27571497  -1.58960668  -0.73897552  -0.63103112  -0.63103112
   0.2096937    1.11681447   1.48947019   1.48947019   1.5932039
   2.00611371]
multiplicity <S^2> = -5.3290705e-15  2S+1 = 1
E1 = -150.62143797777563  Ecoul = 45.444359580720004
cycle= 28 E= -99.9834089332824  delta_E= -1.42e-14  |g|= 2.65e-09  |ddm|= 6.39e-10
    CPU time for cycle= 28      0.15 sec, wall time      0.01 sec
Linear dependence found in DIIS error vectors.
  alpha nocc = 5  HOMO = -0.631031122299163  LUMO = 0.209693698366501
  beta  nocc = 5  HOMO = -0.631031123990075  LUMO = 0.209693698238793
  alpha mo_energy =
[-26.27571497  -1.58960668  -0.73897552  -0.63103112  -0.63103112
   0.2096937    1.11681447   1.48947019   1.48947019   1.5932039
   2.00611371]
  beta  mo_energy =
[-26.27571497  -1.58960668  -0.73897552  -0.63103112  -0.63103112
   0.2096937    1.11681447   1.48947019   1.48947019   1.5932039
   2.00611371]
multiplicity <S^2> = -3.5527137e-15  2S+1 = 1
E1 = -150.6214379776856  Ecoul = 45.444359580629936
cycle= 29 E= -99.9834089332825  delta_E= -2.84e-14  |g|= 2.16e-09  |ddm|= 7.95e-10
    CPU time for cycle= 29      0.16 sec, wall time      0.01 sec
Linear dependence found in DIIS error vectors.
  alpha nocc = 5  HOMO = -0.631031122471444  LUMO = 0.209693698354861
  beta  nocc = 5  HOMO = -0.63103112393344  LUMO = 0.209693698245001
  alpha mo_energy =
[-26.27571497  -1.58960668  -0.73897552  -0.63103112  -0.63103112
   0.2096937    1.11681447   1.48947019   1.48947019   1.5932039
   2.00611371]
  beta  mo_energy =
[-26.27571497  -1.58960668  -0.73897552  -0.63103112  -0.63103112
   0.2096937    1.11681447   1.48947019   1.48947019   1.5932039
   2.00611371]
multiplicity <S^2> = -8.8817842e-16  2S+1 = 1
E1 = -150.62143797773854  Ecoul = 45.444359580682914
cycle= 30 E= -99.9834089332824  delta_E= 2.84e-14  |g|= 1.86e-09  |ddm|= 4.69e-10
    CPU time for cycle= 30      0.16 sec, wall time      0.01 sec
Linear dependence found in DIIS error vectors.
  alpha nocc = 5  HOMO = -0.631031122607648  LUMO = 0.209693698345918
  beta  nocc = 5  HOMO = -0.63103112388468  LUMO = 0.209693698250401
  alpha mo_energy =
[-26.27571497  -1.58960668  -0.73897552  -0.63103112  -0.63103112
   0.2096937    1.11681447   1.48947019   1.48947019   1.5932039
   2.00611371]
  beta  mo_energy =
[-26.27571497  -1.58960668  -0.73897552  -0.63103112  -0.63103112
   0.2096937    1.11681447   1.48947019   1.48947019   1.5932039
   2.00611371]
multiplicity <S^2> = -8.8817842e-16  2S+1 = 1
E1 = -150.6214379777786  Ecoul = 45.44435958072297
cycle= 31 E= -99.9834089332825  delta_E= -2.84e-14  |g|= 1.63e-09  |ddm|= 3.77e-10
    CPU time for cycle= 31      0.15 sec, wall time      0.01 sec
Linear dependence found in DIIS error vectors.
  alpha nocc = 5  HOMO = -0.631031122724642  LUMO = 0.209693698338658
  beta  nocc = 5  HOMO = -0.631031123842097  LUMO = 0.209693698255459
  alpha mo_energy =
[-26.27571497  -1.58960668  -0.73897552  -0.63103112  -0.63103112
   0.2096937    1.11681447   1.48947019   1.48947019   1.5932039
   2.00611371]
  beta  mo_energy =
[-26.27571497  -1.58960668  -0.73897552  -0.63103112  -0.63103112
   0.2096937    1.11681447   1.48947019   1.48947019   1.5932039
   2.00611371]
multiplicity <S^2> = -4.4408921e-15  2S+1 = 1
E1 = -150.62143797781107  Ecoul = 45.44435958075544
cycle= 32 E= -99.9834089332824  delta_E= 2.84e-14  |g|= 1.43e-09  |ddm|= 3.27e-10
    CPU time for cycle= 32      0.26 sec, wall time      0.01 sec
Linear dependence found in DIIS error vectors.
  alpha nocc = 5  HOMO = -0.631031122828512  LUMO = 0.209693698332884
  beta  nocc = 5  HOMO = -0.631031123804681  LUMO = 0.209693698260521
  alpha mo_energy =
[-26.27571497  -1.58960668  -0.73897552  -0.63103112  -0.63103112
   0.2096937    1.11681447   1.48947019   1.48947019   1.5932039
   2.00611371]
  beta  mo_energy =
[-26.27571497  -1.58960668  -0.73897552  -0.63103112  -0.63103112
   0.2096937    1.11681447   1.48947019   1.48947019   1.5932039
   2.00611371]
multiplicity <S^2> = 3.5527137e-15  2S+1 = 1
E1 = -150.62143797783494  Ecoul = 45.444359580779334
cycle= 33 E= -99.9834089332824  delta_E= 1.42e-14  |g|= 1.25e-09  |ddm|= 2.93e-10
    CPU time for cycle= 33      0.16 sec, wall time      0.01 sec
Linear dependence found in DIIS error vectors.
  alpha nocc = 5  HOMO = -0.631031122922906  LUMO = 0.20969369832786
  beta  nocc = 5  HOMO = -0.631031123773062  LUMO = 0.20969369826503
  alpha mo_energy =
[-26.27571497  -1.58960668  -0.73897552  -0.63103112  -0.63103112
   0.2096937    1.11681447   1.48947019   1.48947019   1.5932039
   2.00611371]
  beta  mo_energy =
[-26.27571497  -1.58960668  -0.73897552  -0.63103112  -0.63103112
   0.2096937    1.11681447   1.48947019   1.48947019   1.5932039
   2.00611371]
multiplicity <S^2> = 5.3290705e-15  2S+1 = 1
E1 = -150.62143797786402  Ecoul = 45.44435958080848
cycle= 34 E= -99.9834089332824  delta_E= 7.11e-14  |g|= 1.08e-09  |ddm|= 2.68e-10
    CPU time for cycle= 34      0.16 sec, wall time      0.01 sec
Linear dependence found in DIIS error vectors.
  alpha nocc = 5  HOMO = -0.631031123010869  LUMO = 0.209693698323098
  beta  nocc = 5  HOMO = -0.631031123744307  LUMO = 0.209693698269279
  alpha mo_energy =
[-26.27571497  -1.58960668  -0.73897552  -0.63103112  -0.63103112
   0.2096937    1.11681447   1.48947019   1.48947019   1.5932039
   2.00611371]
  beta  mo_energy =
[-26.27571497  -1.58960668  -0.73897552  -0.63103112  -0.63103112
   0.2096937    1.11681447   1.48947019   1.48947019   1.5932039
   2.00611371]
multiplicity <S^2> = -3.5527137e-15  2S+1 = 1
E1 = -150.62143797789793  Ecoul = 45.44435958084228
cycle= 35 E= -99.9834089332825  delta_E= -1.14e-13  |g|= 9.38e-10  |ddm|= 2.37e-10
    CPU time for cycle= 35      0.30 sec, wall time      0.01 sec
Linear dependence found in DIIS error vectors.
  alpha nocc = 5  HOMO = -0.631031123084426  LUMO = 0.209693698319347
  beta  nocc = 5  HOMO = -0.631031123714761  LUMO = 0.209693698273431
  alpha mo_energy =
[-26.27571497  -1.58960668  -0.73897552  -0.63103112  -0.63103112
   0.2096937    1.11681447   1.48947019   1.48947019   1.5932039
   2.00611371]
  beta  mo_energy =
[-26.27571497  -1.58960668  -0.73897552  -0.63103112  -0.63103112
   0.2096937    1.11681447   1.48947019   1.48947019   1.5932039
   2.00611371]
multiplicity <S^2> = -3.5527137e-15  2S+1 = 1
E1 = -150.6214379779011  Ecoul = 45.44435958084549
cycle= 36 E= -99.9834089332824  delta_E= 2.84e-14  |g|= 8.09e-10  |ddm|= 2.12e-10
    CPU time for cycle= 36      0.28 sec, wall time      0.01 sec
Linear dependence found in DIIS error vectors.
  alpha nocc = 5  HOMO = -0.631031123145882  LUMO = 0.209693698316348
  beta  nocc = 5  HOMO = -0.631031123686854  LUMO = 0.209693698277217
  alpha mo_energy =
[-26.27571497  -1.58960668  -0.73897552  -0.63103112  -0.63103112
   0.2096937    1.11681447   1.48947019   1.48947019   1.5932039
   2.00611371]
  beta  mo_energy =
[-26.27571497  -1.58960668  -0.73897552  -0.63103112  -0.63103112
   0.2096937    1.11681447   1.48947019   1.48947019   1.5932039
   2.00611371]
multiplicity <S^2> = -3.5527137e-15  2S+1 = 1
E1 = -150.62143797788957  Ecoul = 45.44435958083395
cycle= 37 E= -99.9834089332824  delta_E=    0  |g|= 6.96e-10  |ddm|= 1.87e-10
    CPU time for cycle= 37      0.52 sec, wall time      0.02 sec
Linear dependence found in DIIS error vectors.
  alpha nocc = 5  HOMO = -0.631031123192433  LUMO = 0.209693698313873
  beta  nocc = 5  HOMO = -0.631031123661396  LUMO = 0.209693698280179
  alpha mo_energy =
[-26.27571497  -1.58960668  -0.73897552  -0.63103112  -0.63103112
   0.2096937    1.11681447   1.48947019   1.48947019   1.5932039
   2.00611371]
  beta  mo_energy =
[-26.27571497  -1.58960668  -0.73897552  -0.63103112  -0.63103112
   0.2096937    1.11681447   1.48947019   1.48947019   1.5932039
   2.00611371]
multiplicity <S^2> = 0  2S+1 = 1
E1 = -150.62143797787496  Ecoul = 45.44435958081938
cycle= 38 E= -99.9834089332824  delta_E= 4.26e-14  |g|= 6.06e-10  |ddm|= 1.5e-10
    CPU time for cycle= 38      0.17 sec, wall time      0.01 sec
Linear dependence found in DIIS error vectors.
  alpha nocc = 5  HOMO = -0.631031123232634  LUMO = 0.209693698311752
  beta  nocc = 5  HOMO = -0.631031123639487  LUMO = 0.209693698282735
  alpha mo_energy =
[-26.27571497  -1.58960668  -0.73897552  -0.63103112  -0.63103112
   0.2096937    1.11681447   1.48947019   1.48947019   1.5932039
   2.00611371]
  beta  mo_energy =
[-26.27571497  -1.58960668  -0.73897552  -0.63103112  -0.63103112
   0.2096937    1.11681447   1.48947019   1.48947019   1.5932039
   2.00611371]
multiplicity <S^2> = 0  2S+1 = 1
E1 = -150.6214379778648  Ecoul = 45.44435958080917
cycle= 39 E= -99.9834089332824  delta_E= -4.26e-14  |g|= 5.29e-10  |ddm|= 1.3e-10
    CPU time for cycle= 39      0.16 sec, wall time      0.01 sec
Linear dependence found in DIIS error vectors.
  alpha nocc = 5  HOMO = -0.631031123267971  LUMO = 0.209693698309911
  beta  nocc = 5  HOMO = -0.631031123620469  LUMO = 0.209693698284957
  alpha mo_energy =
[-26.27571497  -1.58960668  -0.73897552  -0.63103112  -0.63103112
   0.2096937    1.11681447   1.48947019   1.48947019   1.5932039
   2.00611371]
  beta  mo_energy =
[-26.27571497  -1.58960668  -0.73897552  -0.63103112  -0.63103112
   0.2096937    1.11681447   1.48947019   1.48947019   1.5932039
   2.00611371]
multiplicity <S^2> = 1.7763568e-15  2S+1 = 1
E1 = -150.6214379778578  Ecoul = 45.44435958080219
cycle= 40 E= -99.9834089332824  delta_E= 2.84e-14  |g|= 4.61e-10  |ddm|= 1.15e-10
    CPU time for cycle= 40      0.16 sec, wall time      0.01 sec
Linear dependence found in DIIS error vectors.
  alpha nocc = 5  HOMO = -0.63103112329914  LUMO = 0.209693698308296
  beta  nocc = 5  HOMO = -0.631031123603904  LUMO = 0.209693698286897
  alpha mo_energy =
[-26.27571497  -1.58960668  -0.73897552  -0.63103112  -0.63103112
   0.2096937    1.11681447   1.48947019   1.48947019   1.5932039
   2.00611371]
  beta  mo_energy =
[-26.27571497  -1.58960668  -0.73897552  -0.63103112  -0.63103112
   0.2096937    1.11681447   1.48947019   1.48947019   1.5932039
   2.00611371]
multiplicity <S^2> = -6.2172489e-15  2S+1 = 1
E1 = -150.62143797785365  Ecoul = 45.44435958079797
cycle= 41 E= -99.9834089332825  delta_E= -8.53e-14  |g|= 4.01e-10  |ddm|= 1.02e-10
    CPU time for cycle= 41      0.16 sec, wall time      0.01 sec
Linear dependence found in DIIS error vectors.
  alpha nocc = 5  HOMO = -0.631031123326524  LUMO = 0.209693698306861
  beta  nocc = 5  HOMO = -0.631031123589442  LUMO = 0.209693698288566
  alpha mo_energy =
[-26.27571497  -1.58960668  -0.73897552  -0.63103112  -0.63103112
   0.2096937    1.11681447   1.48947019   1.48947019   1.5932039
   2.00611371]
  beta  mo_energy =
[-26.27571497  -1.58960668  -0.73897552  -0.63103112  -0.63103112
   0.2096937    1.11681447   1.48947019   1.48947019   1.5932039
   2.00611371]
multiplicity <S^2> = 0  2S+1 = 1
E1 = -150.62143797785131  Ecoul = 45.444359580795705
cycle= 42 E= -99.9834089332824  delta_E= 7.11e-14  |g|= 3.49e-10  |ddm|= 8.97e-11
    CPU time for cycle= 42      0.16 sec, wall time      0.01 sec
Linear dependence found in DIIS error vectors.
  alpha nocc = 5  HOMO = -0.631031123350567  LUMO = 0.209693698305557
  beta  nocc = 5  HOMO = -0.631031123576884  LUMO = 0.20969369828997
  alpha mo_energy =
[-26.27571497  -1.58960668  -0.73897552  -0.63103112  -0.63103112
   0.2096937    1.11681447   1.48947019   1.48947019   1.5932039
   2.00611371]
  beta  mo_energy =
[-26.27571497  -1.58960668  -0.73897552  -0.63103112  -0.63103112
   0.2096937    1.11681447   1.48947019   1.48947019   1.5932039
   2.00611371]
multiplicity <S^2> = -1.7763568e-15  2S+1 = 1
E1 = -150.62143797785154  Ecoul = 45.44435958079595
cycle= 43 E= -99.9834089332824  delta_E= 1.42e-14  |g|= 3.03e-10  |ddm|= 7.83e-11
    CPU time for cycle= 43      0.18 sec, wall time      0.01 sec
Linear dependence found in DIIS error vectors.
  alpha nocc = 5  HOMO = -0.631031123371462  LUMO = 0.209693698304372
  beta  nocc = 5  HOMO = -0.631031123566226  LUMO = 0.209693698291116
  alpha mo_energy =
[-26.27571497  -1.58960668  -0.73897552  -0.63103112  -0.63103112
   0.2096937    1.11681447   1.48947019   1.48947019   1.5932039
   2.00611371]
  beta  mo_energy =
[-26.27571497  -1.58960668  -0.73897552  -0.63103112  -0.63103112
   0.2096937    1.11681447   1.48947019   1.48947019   1.5932039
   2.00611371]
multiplicity <S^2> = -8.8817842e-16  2S+1 = 1
E1 = -150.62143797785433  Ecoul = 45.44435958079869
cycle= 44 E= -99.9834089332825  delta_E= -4.26e-14  |g|= 2.64e-10  |ddm|= 6.85e-11
    CPU time for cycle= 44      0.19 sec, wall time      0.01 sec
Linear dependence found in DIIS error vectors.
  alpha nocc = 5  HOMO = -0.631031123389258  LUMO = 0.209693698303351
  beta  nocc = 5  HOMO = -0.631031123556981  LUMO = 0.209693698292064
  alpha mo_energy =
[-26.27571497  -1.58960668  -0.73897552  -0.63103112  -0.63103112
   0.2096937    1.11681447   1.48947019   1.48947019   1.5932039
   2.00611371]
  beta  mo_energy =
[-26.27571497  -1.58960668  -0.73897552  -0.63103112  -0.63103112
   0.2096937    1.11681447   1.48947019   1.48947019   1.5932039
   2.00611371]
multiplicity <S^2> = -3.5527137e-15  2S+1 = 1
E1 = -150.6214379778574  Ecoul = 45.44435958080169
cycle= 45 E= -99.9834089332825  delta_E= -7.11e-14  |g|= 2.3e-10  |ddm|= 5.96e-11
    CPU time for cycle= 45      0.15 sec, wall time      0.01 sec
Linear dependence found in DIIS error vectors.
  alpha nocc = 5  HOMO = -0.631031123404246  LUMO = 0.20969369830248
  beta  nocc = 5  HOMO = -0.631031123548836  LUMO = 0.209693698292873
  alpha mo_energy =
[-26.27571497  -1.58960668  -0.73897552  -0.63103112  -0.63103112
   0.2096937    1.11681447   1.48947019   1.48947019   1.5932039
   2.00611371]
  beta  mo_energy =
[-26.27571497  -1.58960668  -0.73897552  -0.63103112  -0.63103112
   0.2096937    1.11681447   1.48947019   1.48947019   1.5932039
   2.00611371]
multiplicity <S^2> = -1.7763568e-15  2S+1 = 1
E1 = -150.6214379778594  Ecoul = 45.44435958080374
cycle= 46 E= -99.9834089332825  delta_E= 5.68e-14  |g|= 2.01e-10  |ddm|= 5.16e-11
    CPU time for cycle= 46      0.15 sec, wall time      0.01 sec
Linear dependence found in DIIS error vectors.
  alpha nocc = 5  HOMO = -0.631031123417067  LUMO = 0.209693698301749
  beta  nocc = 5  HOMO = -0.631031123541577  LUMO = 0.209693698293593
  alpha mo_energy =
[-26.27571497  -1.58960668  -0.73897552  -0.63103112  -0.63103112
   0.2096937    1.11681447   1.48947019   1.48947019   1.5932039
   2.00611371]
  beta  mo_energy =
[-26.27571497  -1.58960668  -0.73897552  -0.63103112  -0.63103112
   0.2096937    1.11681447   1.48947019   1.48947019   1.5932039
   2.00611371]
multiplicity <S^2> = 8.8817842e-16  2S+1 = 1
E1 = -150.62143797786015  Ecoul = 45.4443595808046
cycle= 47 E= -99.9834089332824  delta_E= 9.95e-14  |g|= 1.75e-10  |ddm|= 4.54e-11
    CPU time for cycle= 47      0.18 sec, wall time      0.01 sec
Linear dependence found in DIIS error vectors.
  alpha nocc = 5  HOMO = -0.631031123428062  LUMO = 0.209693698301138
  beta  nocc = 5  HOMO = -0.631031123535137  LUMO = 0.209693698294226
  alpha mo_energy =
[-26.27571497  -1.58960668  -0.73897552  -0.63103112  -0.63103112
   0.2096937    1.11681447   1.48947019   1.48947019   1.5932039
   2.00611371]
  beta  mo_energy =
[-26.27571497  -1.58960668  -0.73897552  -0.63103112  -0.63103112
   0.2096937    1.11681447   1.48947019   1.48947019   1.5932039
   2.00611371]
multiplicity <S^2> = -6.2172489e-15  2S+1 = 1
E1 = -150.62143797786047  Ecoul = 45.44435958080482
cycle= 48 E= -99.9834089332825  delta_E= -9.95e-14  |g|= 1.53e-10  |ddm|= 4e-11
    CPU time for cycle= 48      0.17 sec, wall time      0.01 sec
Linear dependence found in DIIS error vectors.
  alpha nocc = 5  HOMO = -0.631031123437502  LUMO = 0.209693698300616
  beta  nocc = 5  HOMO = -0.631031123529428  LUMO = 0.209693698294782
  alpha mo_energy =
[-26.27571497  -1.58960668  -0.73897552  -0.63103112  -0.63103112
   0.2096937    1.11681447   1.48947019   1.48947019   1.5932039
   2.00611371]
  beta  mo_energy =
[-26.27571497  -1.58960668  -0.73897552  -0.63103112  -0.63103112
   0.2096937    1.11681447   1.48947019   1.48947019   1.5932039
   2.00611371]
multiplicity <S^2> = -6.2172489e-15  2S+1 = 1
E1 = -150.62143797786013  Ecoul = 45.4443595808045
cycle= 49 E= -99.9834089332824  delta_E= 2.84e-14  |g|= 1.34e-10  |ddm|= 3.52e-11
    CPU time for cycle= 49      0.27 sec, wall time      0.01 sec
Linear dependence found in DIIS error vectors.
  alpha nocc = 5  HOMO = -0.631031123445588  LUMO = 0.209693698300176
  beta  nocc = 5  HOMO = -0.631031123524394  LUMO = 0.209693698295266
  alpha mo_energy =
[-26.27571497  -1.58960668  -0.73897552  -0.63103112  -0.63103112
   0.2096937    1.11681447   1.48947019   1.48947019   1.5932039
   2.00611371]
  beta  mo_energy =
[-26.27571497  -1.58960668  -0.73897552  -0.63103112  -0.63103112
   0.2096937    1.11681447   1.48947019   1.48947019   1.5932039
   2.00611371]
multiplicity <S^2> = -3.5527137e-15  2S+1 = 1
E1 = -150.62143797785959  Ecoul = 45.44435958080392
cycle= 50 E= -99.9834089332825  delta_E= -4.26e-14  |g|= 1.17e-10  |ddm|= 3.1e-11
    CPU time for cycle= 50      0.17 sec, wall time      0.01 sec
    CPU time for scf_cycle     11.85 sec, wall time      0.51 sec
    CPU time for SCF     11.85 sec, wall time      0.51 sec
SCF not converged.
SCF energy = -99.9834089332825 after 50 cycles  <S^2> = -3.5527137e-15  2S+1 = 1
loop example
davidson 0 1  |r|= 2.34  e= [2.32818982]  max|de|= 2.33  lindep= 0.596
davidson 1 2  |r|= 0.909  e= [1.26338793]  max|de|= -1.06  lindep= 0.803
davidson 2 3  |r|= 0.455  e= [1.045683]  max|de|= -0.218  lindep= 0.863
davidson 3 4  |r|= 0.416  e= [0.91525381]  max|de|= -0.13  lindep= 0.92
davidson 4 5  |r|= 0.152  e= [0.89682742]  max|de|= -0.0184  lindep= 0.881
davidson 5 6  |r|= 0.159  e= [0.89327314]  max|de|= -0.00355  lindep= 0.584
davidson 6 7  |r|= 0.396  e= [0.77440856]  max|de|= -0.119  lindep= 0.634
davidson 7 8  |r|= 0.0362  e= [0.75815126]  max|de|= -0.0163  lindep= 0.792
davidson 8 9  |r|= 0.00694  e= [0.7578396]  max|de|= -0.000312  lindep= 0.967
root 0 converged  |r|= 0.00207  e= 0.7578359949558199  max|de|= -3.61e-06
converged 9 10  |r|= 0.00207  e= [0.75783599]  max|de|= -3.61e-06
<class 'pyscf.scf.uhf.UHF'> wavefunction is stable in the internal stability analysis
(11, 11)
(2, 11, 11)
mo energy: (11,)
total 2e- integral energy: 45.44435958080393
(11, 11, 11, 11)
final rhf/uhf energy: -99.98340893328248
moE: [-26.27571497  -1.58960668  -0.73897552  -0.63103112  -0.63103112
   0.2096937    1.11681447   1.48947019   1.48947019   1.5932039
   2.00611371] [-26.27571497  -1.58960668  -0.73897552  -0.63103112  -0.63103112
   0.2096937    1.11681447   1.48947019   1.48947019   1.5932039
   2.00611371]
slice(None, 5, None) slice(5, None, None)
eabij_aa: [[[[-0.01887832 -0.03535479 -0.03645102 -0.03659501 -0.03659501]
   [-0.03535479 -0.27788579 -0.36390505 -0.37878426 -0.37878426]
   [-0.03645102 -0.36390505 -0.5270541  -0.5588484  -0.5588484 ]
   [-0.03659501 -0.37878426 -0.5588484  -0.59472492 -0.59472492]
   [-0.03659501 -0.37878426 -0.5588484  -0.59472492 -0.59472492]]

  [[-0.01856047 -0.03425616 -0.03528432 -0.03541923 -0.03541923]
   [-0.03425616 -0.22194004 -0.27359105 -0.28191679 -0.28191679]
   [-0.03528432 -0.27359105 -0.35657499 -0.37084907 -0.37084907]
   [-0.03541923 -0.28191679 -0.37084907 -0.38631362 -0.38631362]
   [-0.03541923 -0.28191679 -0.37084907 -0.38631362 -0.38631362]]

  [[-0.01843298 -0.03382437 -0.03482639 -0.03495781 -0.03495781]
   [-0.03382437 -0.2049862  -0.24827782 -0.25511495 -0.25511495]
   [-0.03482639 -0.24827782 -0.31475097 -0.32582093 -0.32582093]
   [-0.03495781 -0.25511495 -0.32582093 -0.33769795 -0.33769795]
   [-0.03495781 -0.25511495 -0.32582093 -0.33769795 -0.33769795]]

  [[-0.01843298 -0.03382437 -0.03482639 -0.03495781 -0.03495781]
   [-0.03382437 -0.2049862  -0.24827782 -0.25511495 -0.25511495]
   [-0.03482639 -0.24827782 -0.31475097 -0.32582093 -0.32582093]
   [-0.03495781 -0.25511495 -0.32582093 -0.33769795 -0.33769795]
   [-0.03495781 -0.25511495 -0.32582093 -0.33769795 -0.33769795]]

  [[-0.0183978  -0.0337061  -0.03470103 -0.0348315  -0.0348315 ]
   [-0.0337061  -0.20071813 -0.24204403 -0.24853764 -0.24853764]
   [-0.03470103 -0.24204403 -0.30479919 -0.31516867 -0.31516867]
   [-0.0348315  -0.24853764 -0.31516867 -0.32626855 -0.32626855]
   [-0.0348315  -0.24853764 -0.31516867 -0.32626855 -0.32626855]]

  [[-0.01825909 -0.03324343 -0.03421084 -0.03433765 -0.03433765]
   [-0.03324343 -0.1853561  -0.22005156 -0.22540569 -0.22540569]
   [-0.03421084 -0.22005156 -0.27072696 -0.2788767  -0.2788767 ]
   [-0.03433765 -0.22540569 -0.2788767  -0.28753234 -0.28753234]
   [-0.03433765 -0.22540569 -0.2788767  -0.28753234 -0.28753234]]]


 [[[-0.01856047 -0.03425616 -0.03528432 -0.03541923 -0.03541923]
   [-0.03425616 -0.22194004 -0.27359105 -0.28191679 -0.28191679]
   [-0.03528432 -0.27359105 -0.35657499 -0.37084907 -0.37084907]
   [-0.03541923 -0.28191679 -0.37084907 -0.38631362 -0.38631362]
   [-0.03541923 -0.28191679 -0.37084907 -0.38631362 -0.38631362]]

  [[-0.01825315 -0.03322375 -0.03419    -0.03431665 -0.03431665]
   [-0.03322375 -0.18474582 -0.21919196 -0.22450384 -0.22450384]
   [-0.03419    -0.21919196 -0.26942704 -0.27749754 -0.27749754]
   [-0.03431665 -0.22450384 -0.27749754 -0.28606646 -0.28606646]
   [-0.03431665 -0.22450384 -0.27749754 -0.28606646 -0.28606646]]

  [[-0.01812983 -0.03281744 -0.03375986 -0.03388334 -0.03388334]
   [-0.03281744 -0.17284597 -0.20263971 -0.20717134 -0.20717134]
   [-0.03375986 -0.20263971 -0.24484385 -0.25149063 -0.25149063]
   [-0.03388334 -0.20717134 -0.25149063 -0.25850836 -0.25850836]
   [-0.03388334 -0.20717134 -0.25149063 -0.25850836 -0.25850836]]

  [[-0.01812983 -0.03281744 -0.03375986 -0.03388334 -0.03388334]
   [-0.03281744 -0.17284597 -0.20263971 -0.20717134 -0.20717134]
   [-0.03375986 -0.20263971 -0.24484385 -0.25149063 -0.25149063]
   [-0.03388334 -0.20717134 -0.25149063 -0.25850836 -0.25850836]
   [-0.03388334 -0.20717134 -0.25149063 -0.25850836 -0.25850836]]

  [[-0.0180958  -0.0327061  -0.03364205 -0.03376466 -0.03376466]
   [-0.0327061  -0.16980144 -0.19846781 -0.20281276 -0.20281276]
   [-0.03364205 -0.19846781 -0.2387792  -0.24509654 -0.24509654]
   [-0.03376466 -0.20281276 -0.24509654 -0.25175723 -0.25175723]
   [-0.03376466 -0.20281276 -0.24509654 -0.25175723 -0.25175723]]

  [[-0.01796159 -0.0322703  -0.03318112 -0.03330039 -0.03330039]
   [-0.0322703  -0.15867622 -0.1834354  -0.18714095 -0.18714095]
   [-0.03318112 -0.1834354  -0.21734976 -0.22257167 -0.22257167]
   [-0.03330039 -0.18714095 -0.22257167 -0.22805067 -0.22805067]
   [-0.03330039 -0.18714095 -0.22257167 -0.22805067 -0.22805067]]]


 [[[-0.01843298 -0.03382437 -0.03482639 -0.03495781 -0.03495781]
   [-0.03382437 -0.2049862  -0.24827782 -0.25511495 -0.25511495]
   [-0.03482639 -0.24827782 -0.31475097 -0.32582093 -0.32582093]
   [-0.03495781 -0.25511495 -0.32582093 -0.33769795 -0.33769795]
   [-0.03495781 -0.25511495 -0.32582093 -0.33769795 -0.33769795]]

  [[-0.01812983 -0.03281744 -0.03375986 -0.03388334 -0.03388334]
   [-0.03281744 -0.17284597 -0.20263971 -0.20717134 -0.20717134]
   [-0.03375986 -0.20263971 -0.24484385 -0.25149063 -0.25149063]
   [-0.03388334 -0.20717134 -0.25149063 -0.25850836 -0.25850836]
   [-0.03388334 -0.20717134 -0.25149063 -0.25850836 -0.25850836]]

  [[-0.01800816 -0.03242094 -0.03334041 -0.03346083 -0.03346083]
   [-0.03242094 -0.16238633 -0.18841182 -0.19232329 -0.19232329]
   [-0.03334041 -0.18841182 -0.22437163 -0.22994072 -0.22994072]
   [-0.03346083 -0.19232329 -0.22994072 -0.2357933  -0.2357933 ]
   [-0.03346083 -0.19232329 -0.22994072 -0.2357933  -0.2357933 ]]

  [[-0.01800816 -0.03242094 -0.03334041 -0.03346083 -0.03346083]
   [-0.03242094 -0.16238633 -0.18841182 -0.19232329 -0.19232329]
   [-0.03334041 -0.18841182 -0.22437163 -0.22994072 -0.22994072]
   [-0.03346083 -0.19232329 -0.22994072 -0.2357933  -0.2357933 ]
   [-0.03346083 -0.19232329 -0.22994072 -0.2357933  -0.2357933 ]]

  [[-0.01797459 -0.03231227 -0.0332255  -0.03334509 -0.03334509]
   [-0.03231227 -0.15969626 -0.18479997 -0.18856142 -0.18856142]
   [-0.0332255  -0.18479997 -0.21926819 -0.22458381 -0.22458381]
   [-0.03334509 -0.18856142 -0.22458381 -0.23016356 -0.23016356]
   [-0.03334509 -0.18856142 -0.22458381 -0.23016356 -0.23016356]]

  [[-0.01784216 -0.03188683 -0.03277584 -0.03289222 -0.03289222]
   [-0.03188683 -0.14981728 -0.1716984  -0.17494073 -0.17494073]
   [-0.03277584 -0.1716984  -0.20106424 -0.2055249  -0.2055249 ]
   [-0.03289222 -0.17494073 -0.2055249  -0.21018797 -0.21018797]
   [-0.03289222 -0.17494073 -0.2055249  -0.21018797 -0.21018797]]]


 [[[-0.01843298 -0.03382437 -0.03482639 -0.03495781 -0.03495781]
   [-0.03382437 -0.2049862  -0.24827782 -0.25511495 -0.25511495]
   [-0.03482639 -0.24827782 -0.31475097 -0.32582093 -0.32582093]
   [-0.03495781 -0.25511495 -0.32582093 -0.33769795 -0.33769795]
   [-0.03495781 -0.25511495 -0.32582093 -0.33769795 -0.33769795]]

  [[-0.01812983 -0.03281744 -0.03375986 -0.03388334 -0.03388334]
   [-0.03281744 -0.17284597 -0.20263971 -0.20717134 -0.20717134]
   [-0.03375986 -0.20263971 -0.24484385 -0.25149063 -0.25149063]
   [-0.03388334 -0.20717134 -0.25149063 -0.25850836 -0.25850836]
   [-0.03388334 -0.20717134 -0.25149063 -0.25850836 -0.25850836]]

  [[-0.01800816 -0.03242094 -0.03334041 -0.03346083 -0.03346083]
   [-0.03242094 -0.16238633 -0.18841182 -0.19232329 -0.19232329]
   [-0.03334041 -0.18841182 -0.22437163 -0.22994072 -0.22994072]
   [-0.03346083 -0.19232329 -0.22994072 -0.2357933  -0.2357933 ]
   [-0.03346083 -0.19232329 -0.22994072 -0.2357933  -0.2357933 ]]

  [[-0.01800816 -0.03242094 -0.03334041 -0.03346083 -0.03346083]
   [-0.03242094 -0.16238633 -0.18841182 -0.19232329 -0.19232329]
   [-0.03334041 -0.18841182 -0.22437163 -0.22994072 -0.22994072]
   [-0.03346083 -0.19232329 -0.22994072 -0.2357933  -0.2357933 ]
   [-0.03346083 -0.19232329 -0.22994072 -0.2357933  -0.2357933 ]]

  [[-0.01797459 -0.03231227 -0.0332255  -0.03334509 -0.03334509]
   [-0.03231227 -0.15969626 -0.18479997 -0.18856142 -0.18856142]
   [-0.0332255  -0.18479997 -0.21926819 -0.22458381 -0.22458381]
   [-0.03334509 -0.18856142 -0.22458381 -0.23016356 -0.23016356]
   [-0.03334509 -0.18856142 -0.22458381 -0.23016356 -0.23016356]]

  [[-0.01784216 -0.03188683 -0.03277584 -0.03289222 -0.03289222]
   [-0.03188683 -0.14981728 -0.1716984  -0.17494073 -0.17494073]
   [-0.03277584 -0.1716984  -0.20106424 -0.2055249  -0.2055249 ]
   [-0.03289222 -0.17494073 -0.2055249  -0.21018797 -0.21018797]
   [-0.03289222 -0.17494073 -0.2055249  -0.21018797 -0.21018797]]]


 [[[-0.0183978  -0.0337061  -0.03470103 -0.0348315  -0.0348315 ]
   [-0.0337061  -0.20071813 -0.24204403 -0.24853764 -0.24853764]
   [-0.03470103 -0.24204403 -0.30479919 -0.31516867 -0.31516867]
   [-0.0348315  -0.24853764 -0.31516867 -0.32626855 -0.32626855]
   [-0.0348315  -0.24853764 -0.31516867 -0.32626855 -0.32626855]]

  [[-0.0180958  -0.0327061  -0.03364205 -0.03376466 -0.03376466]
   [-0.0327061  -0.16980144 -0.19846781 -0.20281276 -0.20281276]
   [-0.03364205 -0.19846781 -0.2387792  -0.24509654 -0.24509654]
   [-0.03376466 -0.20281276 -0.24509654 -0.25175723 -0.25175723]
   [-0.03376466 -0.20281276 -0.24509654 -0.25175723 -0.25175723]]

  [[-0.01797459 -0.03231227 -0.0332255  -0.03334509 -0.03334509]
   [-0.03231227 -0.15969626 -0.18479997 -0.18856142 -0.18856142]
   [-0.0332255  -0.18479997 -0.21926819 -0.22458381 -0.22458381]
   [-0.03334509 -0.18856142 -0.22458381 -0.23016356 -0.23016356]
   [-0.03334509 -0.18856142 -0.22458381 -0.23016356 -0.23016356]]

  [[-0.01797459 -0.03231227 -0.0332255  -0.03334509 -0.03334509]
   [-0.03231227 -0.15969626 -0.18479997 -0.18856142 -0.18856142]
   [-0.0332255  -0.18479997 -0.21926819 -0.22458381 -0.22458381]
   [-0.03334509 -0.18856142 -0.22458381 -0.23016356 -0.23016356]
   [-0.03334509 -0.18856142 -0.22458381 -0.23016356 -0.23016356]]

  [[-0.01794113 -0.03220433 -0.03311138 -0.03323015 -0.03323015]
   [-0.03220433 -0.15709386 -0.18132399 -0.18494388 -0.18494388]
   [-0.03311138 -0.18132399 -0.21439174 -0.21947082 -0.21947082]
   [-0.03323015 -0.18494388 -0.21947082 -0.22479639 -0.22479639]
   [-0.03323015 -0.18494388 -0.21947082 -0.22479639 -0.22479639]]

  [[-0.0178092  -0.03178171 -0.03266479 -0.03278037 -0.03278037]
   [-0.03178171 -0.14752459 -0.16869381 -0.17182262 -0.17182262]
   [-0.03266479 -0.16869381 -0.19695629 -0.2012346  -0.2012346 ]
   [-0.03278037 -0.17182262 -0.2012346  -0.20570291 -0.20570291]
   [-0.03278037 -0.17182262 -0.2012346  -0.20570291 -0.20570291]]]


 [[[-0.01825909 -0.03324343 -0.03421084 -0.03433765 -0.03433765]
   [-0.03324343 -0.1853561  -0.22005156 -0.22540569 -0.22540569]
   [-0.03421084 -0.22005156 -0.27072696 -0.2788767  -0.2788767 ]
   [-0.03433765 -0.22540569 -0.2788767  -0.28753234 -0.28753234]
   [-0.03433765 -0.22540569 -0.2788767  -0.28753234 -0.28753234]]

  [[-0.01796159 -0.0322703  -0.03318112 -0.03330039 -0.03330039]
   [-0.0322703  -0.15867622 -0.1834354  -0.18714095 -0.18714095]
   [-0.03318112 -0.1834354  -0.21734976 -0.22257167 -0.22257167]
   [-0.03330039 -0.18714095 -0.22257167 -0.22805067 -0.22805067]
   [-0.03330039 -0.18714095 -0.22257167 -0.22805067 -0.22805067]]

  [[-0.01784216 -0.03188683 -0.03277584 -0.03289222 -0.03289222]
   [-0.03188683 -0.14981728 -0.1716984  -0.17494073 -0.17494073]
   [-0.03277584 -0.1716984  -0.20106424 -0.2055249  -0.2055249 ]
   [-0.03289222 -0.17494073 -0.2055249  -0.21018797 -0.21018797]
   [-0.03289222 -0.17494073 -0.2055249  -0.21018797 -0.21018797]]

  [[-0.01784216 -0.03188683 -0.03277584 -0.03289222 -0.03289222]
   [-0.03188683 -0.14981728 -0.1716984  -0.17494073 -0.17494073]
   [-0.03277584 -0.1716984  -0.20106424 -0.2055249  -0.2055249 ]
   [-0.03289222 -0.17494073 -0.2055249  -0.21018797 -0.21018797]
   [-0.03289222 -0.17494073 -0.2055249  -0.21018797 -0.21018797]]

  [[-0.0178092  -0.03178171 -0.03266479 -0.03278037 -0.03278037]
   [-0.03178171 -0.14752459 -0.16869381 -0.17182262 -0.17182262]
   [-0.03266479 -0.16869381 -0.19695629 -0.2012346  -0.2012346 ]
   [-0.03278037 -0.17182262 -0.2012346  -0.20570291 -0.20570291]
   [-0.03278037 -0.17182262 -0.2012346  -0.20570291 -0.20570291]]

  [[-0.0176792  -0.03137004 -0.03223008 -0.0323426  -0.0323426 ]
   [-0.03137004 -0.13905419 -0.15770857 -0.16043986 -0.16043986]
   [-0.03223008 -0.15770857 -0.18214344 -0.18579645 -0.18579645]
   [-0.0323426  -0.16043986 -0.18579645 -0.18959899 -0.18959899]
   [-0.0323426  -0.16043986 -0.18579645 -0.18959899 -0.18959899]]]] (6, 6, 5, 5)
hf energy: -99.98340893328249
nuclear repulsion: 5.193669463773174
(11, 11, 11, 11)
initial energy: -105.17707839705567
    ==>  CCD  amplitude equations <==

     Iter              Corr. Energy                 |dE|    

        0      -0.128694219585       0.128694219585 

        1      -0.128237688606       0.000456530978 

        2      -0.129899903483       0.001662214877 

        3      -0.130376617833       0.000476714350 

        4      -0.130548749513       0.000172131680 

        5      -0.130652559534       0.000103810021 

        6      -0.130650007082       0.000002552452 

        7      -0.130649986067       0.000000021015 

        8      -0.130650018076       0.000000032009 

        9      -0.130650017234       0.000000000843 

       10      -0.130650017211       0.000000000022 

       11      -0.130650017214       0.000000000003 

       12      -0.130650017217       0.000000000003 

       13      -0.130650017216       0.000000000001 





CCD  correlation contribution: -0.13065001721646752
CCD  energy: -100.11405895049896




