#INFO: **** input file is /blue/bartlett/z.windom/MOLSSI_develop/test/build_T2_interfaces/RECORDS/verify_spin_CCD/pyscfCode/N2_equil_UHF/run_pyscf.py ****
import numpy as np
import pyscf
from pyscf import ao2mo


def main():
    """ Initialize calculation details, 2e- integrals, Fock matrix, etc """

    # run pyscf for some reason
    basis = 'ccpvdz'
    mol = pyscf.M(
        atom='N 0 0 0; N 0 0 {}'.format(2.0749193),
        #atom='Be 0 0 0'
        verbose=5,
        unit='b',
        basis=basis)


    mf = mol.UHF()
    mf.init_guess='1e'
    mf.conv_tol_grad=1E-10
    mf.run()

    from pyscf.lib import logger

    def stable_opt_internal(mf):
        log = logger.new_logger(mf)
        mo1, _, stable, _ = mf.stability(return_status=True)
        cyc = 0
        while (not stable and cyc < 10):
            log.note('Try to optimize orbitals until stable, attempt %d' % cyc)
            dm1 = mf.make_rdm1(mo1, mf.mo_occ)
            mf = mf.run(dm1)
            mo1, _, stable, _ = mf.stability(return_status=True)
            cyc += 1
        if not stable:
            log.note('Stability Opt failed after %d attempts' % cyc)
        return mf
    print('loop example')
    mf = stable_opt_internal(mf)

    orb=mf.mo_coeff
    print(np.shape(mf.get_hcore()))
    print(np.shape(orb))
    import run_ccd as run_ccd 
 
    cc_runtype={"ccdType":"CCDQf-1"}

    run_ccd.ccd_main(mf,mol,orb,cc_runtype)


main()
#INFO: ******************** input file end ********************


System: uname_result(system='Linux', node='login6.ufhpc', release='3.10.0-1160.80.1.el7.x86_64', version='#1 SMP Sat Oct 8 18:13:21 UTC 2022', machine='x86_64', processor='x86_64')  Threads 28
Python 3.7.12 | packaged by conda-forge | (default, Oct 26 2021, 06:08:21) 
[GCC 9.4.0]
numpy 1.21.6  scipy 1.7.3
Date: Mon Jan 30 03:04:01 2023
PySCF version 2.1.1
PySCF path  /blue/bartlett/z.windom/MOLSSI_develop/T2method/new/pyscf
GIT ORIG_HEAD 41535e74b1de6eb21fc9b6a13c089d6cd55b35d7
GIT HEAD (branch master) ff882f83f5730ea5610d52cc5b88d278f9b71da7

[ENV] PYSCF_INC_DIR /home/z.windom/libxc-4.3.4
[CONFIG] conf_file /home/z.windom/.pyscf_conf.py
[INPUT] verbose = 5
[INPUT] max_memory = 4000 
[INPUT] num. atoms = 2
[INPUT] num. electrons = 14
[INPUT] charge = 0
[INPUT] spin (= nelec alpha-beta = 2S) = 0
[INPUT] symmetry False subgroup None
[INPUT] Mole.unit = b
[INPUT] Symbol           X                Y                Z      unit          X                Y                Z       unit  Magmom
[INPUT]  1 N      0.000000000000   0.000000000000   0.000000000000 AA    0.000000000000   0.000000000000   0.000000000000 Bohr   0.0
[INPUT]  2 N      0.000000000000   0.000000000000   1.098000008058 AA    0.000000000000   0.000000000000   2.074919300000 Bohr   0.0
[INPUT] ---------------- BASIS SET ---------------- 
[INPUT] l, kappa, [nprim/nctr], expnt,             c_1 c_2 ...
[INPUT] N
[INPUT] 0    0    [8    /2   ]  9046              0.0007 -0.000153
                                1357              0.005389 -0.001208
                                309.3             0.027406 -0.005992
                                87.73             0.103207 -0.024544
                                28.56             0.278723 -0.067459
                                10.21             0.44854 -0.158078
                                3.838             0.278238 -0.121831
                                0.7466            0.01544 0.549003
[INPUT] 0    0    [1    /1   ]  0.2248               1
[INPUT] 1    0    [3    /1   ]  13.55             0.039919
                                2.917             0.217169
                                0.7973            0.510319
[INPUT] 1    0    [1    /1   ]  0.2185               1
[INPUT] 2    0    [1    /1   ]  0.817                1

nuclear repulsion = 23.6153762702964
number of shells = 10
number of NR pGTOs = 52
number of NR cGTOs = 28
basis = ccpvdz
ecp = {}
CPU time:         4.08


******** <class 'pyscf.scf.uhf.UHF'> ********
method = UHF
initial guess = 1e
damping factor = 0
level_shift factor = 0
DIIS = <class 'pyscf.scf.diis.CDIIS'>
diis_start_cycle = 1
diis_space = 8
SCF conv_tol = 1e-09
SCF conv_tol_grad = 1e-10
SCF max_cycles = 50
direct_scf = True
direct_scf_tol = 1e-13
chkfile to save SCF result = /blue/bartlett/z.windom/MOLSSI_develop/test/build_T2_interfaces/RECORDS/verify_spin_CCD/pyscfCode/N2_equil_UHF/tmpnn283nl8
max_memory 4000 MB (current use 85 MB)
number electrons alpha = 7  beta = 7
Initial guess from hcore.

WARN: alpha nocc = 7  HOMO -8.82341801753517 >= LUMO -8.82341801753517


WARN: beta  nocc = 7  HOMO -8.82341801753517 >= LUMO -8.82341801753517


WARN: system HOMO -8.82341801753517 >= system LUMO -8.82341801753517

  alpha mo_energy =
[-27.82703418 -27.8264417  -10.65003406  -9.18273478  -9.12622355
  -9.12622355  -8.82341802  -8.82341802  -8.51351857  -8.42816226
  -5.96631708  -5.96631708  -5.73416344  -5.73416344  -5.63344362
  -5.09726808  -5.09726808  -4.76171975  -4.73641361  -4.73641361
  -4.69309919  -4.69309919  -4.61488131  -4.40864583  -4.06783726
  -3.80594278  -3.80594278  -2.98063239]
  beta  mo_energy =
[-27.82703418 -27.8264417  -10.65003406  -9.18273478  -9.12622355
  -9.12622355  -8.82341802  -8.82341802  -8.51351857  -8.42816226
  -5.96631708  -5.96631708  -5.73416344  -5.73416344  -5.63344362
  -5.09726808  -5.09726808  -4.76171975  -4.73641361  -4.73641361
  -4.69309919  -4.69309919  -4.61488131  -4.40864583  -4.06783726
  -3.80594278  -3.80594278  -2.98063239]
multiplicity <S^2> = -1.7763568e-15  2S+1 = 1
E1 = -244.79548843017542  Ecoul = 118.42189766330452
init E= -102.758214496575
cond(S) = 504.82631920102904
    CPU time for initialize scf      1.50 sec, wall time      0.06 sec
  alpha nocc = 7  HOMO = 1.98651300103962  LUMO = 2.00060795931446
  beta  nocc = 7  HOMO = 1.93232671211057  LUMO = 1.93518230626738

WARN: system HOMO 1.93232671211057 >= system LUMO 1.93518230626738

  alpha mo_energy =
[-10.45885357 -10.45620395   1.36544122   1.48274739   1.94230181
   1.95687054   1.986513     2.00060796   2.29122478   2.58635773
   3.38898623   3.52211823   3.5389992    3.67739729   3.81146458
   3.90302502   4.2790905    4.47824976   4.77253129   4.7731207
   5.0022832    5.00235981   5.23590522   5.30615237   5.83798606
   6.00535372   6.28583078   7.23065147]
  beta  mo_energy =
[-10.63485752 -10.52506591  -0.02180123   1.36103456   1.52861261
   1.8893229    1.93232671   1.93518231   1.94961142   2.26238283
   3.16318146   3.41424231   3.42012909   3.50954666   3.52255396
   3.77513843   3.81134993   4.31710519   4.66505764   4.6653013
   4.84367352   4.86812386   4.95593773   4.95601806   5.68444245
   5.72194497   5.80590444   6.90461611]
multiplicity <S^2> = 2.0031283  2S+1 = 3.0020848
E1 = -165.18068961174043  Ecoul = 41.72360652872038
cycle= 1 E= -99.8417068127237  delta_E= 2.92  |g|= 2.81  |ddm|= 31.6
    CPU time for cycle= 1      0.37 sec, wall time      0.01 sec
  alpha nocc = 7  HOMO = -1.50768573914942  LUMO = -1.34014190516961
  beta  nocc = 7  HOMO = -1.50204354872988  LUMO = -1.40561100309846
  alpha mo_energy =
[-18.3729515  -18.3714675   -2.68449701  -1.85379821  -1.65506688
  -1.57643638  -1.50768574  -1.34014191  -1.29334781  -0.73901372
  -0.16438562  -0.04928158   0.06539696   0.09909858   0.17476915
   0.19065544   0.20695785   0.49256863   0.498055     0.52881112
   0.5837798    0.81178209   1.06861255   1.07224167   1.64488167
   1.84660256   1.8901131    2.04730173]
  beta  mo_energy =
[-18.39811121 -18.39591557  -3.60636695  -2.02713681  -1.76894434
  -1.60013323  -1.50204355  -1.405611    -1.22992495  -0.87707787
  -0.09449286  -0.08135695   0.08379715   0.16511195   0.19685617
   0.22026622   0.39772654   0.46766661   0.47184523   0.49290125
   0.5499399    0.83756031   1.07622554   1.08093323   1.6130948
   1.85457283   1.86991689   2.02672124]
multiplicity <S^2> = 0.03714924  2S+1 = 1.0717262
E1 = -200.28601400569562  Ecoul = 68.77195371785749
cycle= 2 E= -107.898684017542  delta_E= -8.06  |g|= 1.37  |ddm|= 31.4
    CPU time for cycle= 2      0.41 sec, wall time      0.02 sec
  alpha nocc = 7  HOMO = -0.679784374158728  LUMO = -0.103111772013452
  beta  nocc = 7  HOMO = -0.712326520727011  LUMO = -0.113371994337078
  alpha mo_energy =
[-16.09238597 -16.08906842  -1.51101772  -0.86903302  -0.77723238
  -0.7183925   -0.67978437  -0.10311177  -0.07393524   0.44746498
   0.63088796   0.65684296   0.67343788   0.79347498   0.82539458
   0.84340539   0.9041852    1.45206199   1.53355029   1.53407584
   1.63323558   1.65163325   2.06160025   2.06175241   2.63978123
   2.76133402   2.77696361   3.03716589]
  beta  mo_energy =
[-1.61035984e+01 -1.60999589e+01 -1.81798485e+00 -8.53235903e-01
 -8.32441614e-01 -7.25175944e-01 -7.12326521e-01 -1.13371994e-01
 -4.26562825e-03  4.24305235e-01  6.41433852e-01  6.43269632e-01
  6.70990388e-01  8.01819027e-01  8.37293267e-01  8.71773363e-01
  8.86663250e-01  1.44087047e+00  1.52368393e+00  1.52407886e+00
  1.61845758e+00  1.63427667e+00  2.06478855e+00  2.06503961e+00
  2.62587213e+00  2.76243933e+00  2.76875933e+00  3.01950878e+00]
multiplicity <S^2> = 0.011989338  2S+1 = 1.0236979
E1 = -196.17846914215488  Ecoul = 63.69761127577965
cycle= 3 E= -108.865481596079  delta_E= -0.967  |g|= 0.408  |ddm|= 1.05
    CPU time for cycle= 3      0.51 sec, wall time      0.02 sec
  alpha nocc = 7  HOMO = -0.604912246350125  LUMO = 0.176869217101239
  beta  nocc = 7  HOMO = -0.613311365758223  LUMO = 0.176781619388304
  alpha mo_energy =
[-15.67246011 -15.66899714  -1.46690997  -0.77038746  -0.62233797
  -0.61826488  -0.60491225   0.17686922   0.17807682   0.60326493
   0.8273055    0.87957166   0.88448385   1.00331908   1.05518509
   1.06024761   1.15400147   1.65263916   1.76070978   1.76074276
   1.88810897   1.88907217   2.30382386   2.30384008   2.88279338
   3.00404131   3.00423623   3.29224969]
  beta  mo_energy =
[-15.67482582 -15.67126254  -1.48047292  -0.77604676  -0.62567328
  -0.62201731  -0.61331137   0.17678162   0.17678439   0.60392355
   0.8263642    0.87503453   0.87950268   1.00365361   1.05241111
   1.05688872   1.1577958    1.65263402   1.75931566   1.75933267
   1.88701458   1.88774486   2.3033534    2.30336017   2.88216723
   3.00451728   3.0046453    3.29269373]
multiplicity <S^2> = 0.0010637525  2S+1 = 1.0021252
E1 = -194.1945824395886  Ecoul = 61.62586698667703
cycle= 4 E= -108.953339182615  delta_E= -0.0879  |g|= 0.0295  |ddm|= 0.368
    CPU time for cycle= 4      0.49 sec, wall time      0.02 sec
  alpha nocc = 7  HOMO = -0.603963071117274  LUMO = 0.176779067820567
  beta  nocc = 7  HOMO = -0.6059948736386  LUMO = 0.175124995666845
  alpha mo_energy =
[-15.68560819 -15.68224037  -1.46882747  -0.77367132  -0.62598834
  -0.60818241  -0.60396307   0.17677907   0.17760239   0.59484486
   0.82079599   0.871972     0.87486208   0.99307396   1.05141275
   1.05319249   1.14489439   1.6442946    1.75909273   1.75909417
   1.88245091   1.88316334   2.29993566   2.29993605   2.87477852
   2.99627134   2.99667471   3.28402489]
  beta  mo_energy =
[-15.68650174 -15.68311036  -1.46929665  -0.77394155  -0.62551959
  -0.61033031  -0.60599487   0.175125     0.17699238   0.59465902
   0.8212372    0.87066192   0.8731616    0.99306781   1.04993123
   1.05168886   1.14460804   1.64300142   1.75880208   1.75880234
   1.88217505   1.88287599   2.29957664   2.29957698   2.87449484
   2.99623642   2.99652498   3.28372158]
multiplicity <S^2> = 7.9437897e-05  2S+1 = 1.0001589
E1 = -194.20383930674393  Ecoul = 61.63442689982011
cycle= 5 E= -108.954036136627  delta_E= -0.000697  |g|= 0.00796  |ddm|= 0.0328
    CPU time for cycle= 5      0.29 sec, wall time      0.01 sec
  alpha nocc = 7  HOMO = -0.606617023077186  LUMO = 0.17641526022145
  beta  nocc = 7  HOMO = -0.607079112023349  LUMO = 0.176010005206892
  alpha mo_energy =
[-15.68427813 -15.68088132  -1.46967359  -0.77325346  -0.6252633
  -0.60702404  -0.60661702   0.17641526   0.17655832   0.59480299
   0.820577     0.87272117   0.8731028    0.9927454    1.05170753
   1.05191835   1.14493448   1.6435234    1.75833618   1.75833737
   1.88259105   1.88270431   2.29959865   2.29959923   2.87500216
   2.99688017   2.99695066   3.28421509]
  beta  mo_energy =
[-15.68453201 -15.68112894  -1.46995943  -0.77353386  -0.62532254
  -0.60752848  -0.60707911   0.17601001   0.176274     0.59475279
   0.82073549   0.87241344   0.87275711   0.99264526   1.05133771
   1.05155818   1.14471001   1.64319626   1.75825753   1.75825814
   1.8825269    1.8826437    2.29945391   2.29945418   2.87488814
   2.99682121   2.99688569   3.28414222]
multiplicity <S^2> = 2.9844347e-06  2S+1 = 1.000006
E1 = -194.22041680925955  Ecoul = 61.65095570108825
cycle= 6 E= -108.954084837875  delta_E= -4.87e-05  |g|= 0.0015  |ddm|= 0.00946
    CPU time for cycle= 6      0.16 sec, wall time      0.01 sec
  alpha nocc = 7  HOMO = -0.608111377748293  LUMO = 0.175451045835529
  beta  nocc = 7  HOMO = -0.60819309537388  LUMO = 0.175396446999353
  alpha mo_energy =
[-15.68672997 -15.68333448  -1.47110051  -0.77426087  -0.62627042
  -0.60811433  -0.60811138   0.17545105   0.17545409   0.59452435
   0.82018704   0.87233607   0.87238381   0.99221366   1.05095408
   1.05097014   1.14388028   1.64289668   1.7574512    1.75745147
   1.88167376   1.88167794   2.29874595   2.29874606   2.87410189
   2.99608357   2.99608511   3.2830349 ]
  beta  mo_energy =
[-15.6867795  -15.68338281  -1.47116769  -0.77444189  -0.62634904
  -0.60819423  -0.6081931    0.17539645   0.17539679   0.59454347
   0.82021578   0.87230229   0.87234003   0.99215239   1.05090488
   1.05091851   1.14384207   1.64288843   1.75743453   1.75743463
   1.88165536   1.88166216   2.29871835   2.29871836   2.87407855
   2.99607269   2.99607514   3.2830397 ]
multiplicity <S^2> = 9.3228248e-08  2S+1 = 1.0000002
E1 = -194.22513586405896  Ecoul = 61.65567304002219
cycle= 7 E= -108.95408655374  delta_E= -1.72e-06  |g|= 0.000236  |ddm|= 0.00229
    CPU time for cycle= 7      0.15 sec, wall time      0.01 sec
  alpha nocc = 7  HOMO = -0.607996986537736  LUMO = 0.175480578290567
  beta  nocc = 7  HOMO = -0.608016596095386  LUMO = 0.175471394948987
  alpha mo_energy =
[-15.6865324  -15.68313603  -1.4709533   -0.77417641  -0.62618191
  -0.60801735  -0.60799699   0.17548058   0.17548522   0.59452106
   0.82018691   0.87228896   0.8722948    0.99220305   1.05096186
   1.05096735   1.14392033   1.64289012   1.7574869    1.75748692
   1.88172019   1.8817232    2.29875749   2.2987575    2.87412529
   2.99610681   2.99610861   3.28311601]
  beta  mo_energy =
[-15.6865469  -15.6831503   -1.47099045  -0.7742095   -0.62621471
  -0.60803643  -0.6080166    0.17547139   0.17548093   0.5945247
   0.82019391   0.87228171   0.87228705   0.99218232   1.05095094
   1.0509566    1.14388893   1.64287902   1.75748372   1.75748372
   1.88171124   1.88171377   2.29875335   2.29875336   2.87411534
   2.99610189   2.99610309   3.28310747]
multiplicity <S^2> = 7.5174098e-09  2S+1 = 1
E1 = -194.22484459912204  Ecoul = 61.655381727446496
cycle= 8 E= -108.954086601379  delta_E= -4.76e-08  |g|= 5.66e-05  |ddm|= 0.000458
    CPU time for cycle= 8      0.14 sec, wall time      0.01 sec
  alpha nocc = 7  HOMO = -0.608024131664856  LUMO = 0.175484256215718
  beta  nocc = 7  HOMO = -0.608026781606364  LUMO = 0.175483230469913
  alpha mo_energy =
[-15.68654142 -15.68314498  -1.4709738   -0.77419831  -0.62619803
  -0.60802713  -0.60802413   0.17548426   0.17548504   0.59453141
   0.8201997    0.87230154   0.87230334   0.99220584   1.05096572
   1.05096687   1.1439181    1.64289626   1.75749171   1.75749171
   1.88172494   1.88172551   2.2987636    2.2987636    2.8741303
   2.99611345   2.99611382   3.28311954]
  beta  mo_energy =
[-15.68654404 -15.68314755  -1.47097924  -0.77420758  -0.62620855
  -0.60803023  -0.60802678   0.17548323   0.17548502   0.59453364
   0.82020051   0.87230048   0.872302     0.99220032   1.05096403
   1.05096525   1.14391004   1.64289582   1.75749146   1.75749146
   1.88172295   1.88172348   2.29876329   2.2987633    2.87412793
   2.99611223   2.99611247   3.28311753]
multiplicity <S^2> = 3.4973446e-10  2S+1 = 1
E1 = -194.2247670515859  Ecoul = 61.65530417671028
cycle= 9 E= -108.954086604579  delta_E= -3.2e-09  |g|= 1.28e-05  |ddm|= 0.000127
    CPU time for cycle= 9      0.15 sec, wall time      0.01 sec
  alpha nocc = 7  HOMO = -0.608023730072637  LUMO = 0.17548792730061
  beta  nocc = 7  HOMO = -0.608023790472423  LUMO = 0.175487950277803
  alpha mo_energy =
[-15.68653474 -15.68313827  -1.47097276  -0.77420064  -0.62619928
  -0.60802399  -0.60802373   0.17548793   0.17548797   0.59453349
   0.82020286   0.87230503   0.8723051    0.99220607   1.05096877
   1.05096879   1.14391871   1.64289866   1.7574955    1.7574955
   1.88172817   1.88172821   2.29876724   2.29876724   2.87413282
   2.99611649   2.99611651   3.28312277]
  beta  mo_energy =
[-15.68653496 -15.68313848  -1.47097253  -0.77420197  -0.62620091
  -0.60802403  -0.60802379   0.17548795   0.175488     0.59453389
   0.82020297   0.87230506   0.87230516   0.99220528   1.05096871
   1.05096871   1.14391758   1.6428989    1.75749555   1.75749556
   1.88172794   1.88172796   2.29876729   2.29876729   2.87413256
   2.99611631   2.99611632   3.28312254]
multiplicity <S^2> = 4.8903104e-12  2S+1 = 1
E1 = -194.22474194251788  Ecoul = 61.65527906747688
cycle= 10 E= -108.954086604745  delta_E= -1.65e-10  |g|= 1.55e-06  |ddm|= 2.94e-05
    CPU time for cycle= 10      0.16 sec, wall time      0.01 sec
  alpha nocc = 7  HOMO = -0.608023402536968  LUMO = 0.175488152510027
  beta  nocc = 7  HOMO = -0.608023378018806  LUMO = 0.175488165933052
  alpha mo_energy =
[-15.68653425 -15.68313778  -1.47097229  -0.77420087  -0.6261997
  -0.60802342  -0.6080234    0.17548815   0.17548816   0.59453363
   0.82020291   0.87230499   0.87230504   0.99220573   1.05096885
   1.05096887   1.14391837   1.64289875   1.7574957    1.7574957
   1.88172827   1.88172828   2.29876739   2.29876739   2.87413284
   2.99611656   2.99611656   3.28312289]
  beta  mo_energy =
[-15.68653427 -15.6831378   -1.47097221  -0.77420104  -0.62619989
  -0.60802339  -0.60802338   0.17548817   0.17548817   0.59453366
   0.82020294   0.872305     0.87230505   0.99220561   1.05096885
   1.05096887   1.14391822   1.64289877   1.75749571   1.75749571
   1.88172824   1.88172825   2.2987674    2.2987674    2.8741328
   2.99611653   2.99611653   3.28312287]
multiplicity <S^2> = 9.7699626e-14  2S+1 = 1
E1 = -194.22474172147386  Ecoul = 61.65527884643075
cycle= 11 E= -108.954086604747  delta_E= -2.13e-12  |g|= 2.34e-07  |ddm|= 3.16e-06
    CPU time for cycle= 11      0.16 sec, wall time      0.01 sec
  alpha nocc = 7  HOMO = -0.608023416168698  LUMO = 0.175488154860018
  beta  nocc = 7  HOMO = -0.608023415143113  LUMO = 0.175488154400959
  alpha mo_energy =
[-15.68653428 -15.6831378   -1.47097225  -0.77420095  -0.62619982
  -0.60802342  -0.60802342   0.17548815   0.17548816   0.59453366
   0.82020291   0.87230503   0.87230503   0.99220568   1.05096886
   1.05096886   1.14391829   1.64289877   1.75749569   1.75749569
   1.88172826   1.88172826   2.29876739   2.29876739   2.87413282
   2.99611654   2.99611654   3.28312287]
  beta  mo_energy =
[-15.68653428 -15.68313781  -1.47097225  -0.77420097  -0.62619983
  -0.60802342  -0.60802342   0.17548815   0.17548816   0.59453366
   0.82020291   0.87230503   0.87230503   0.99220567   1.05096885
   1.05096886   1.14391828   1.64289877   1.75749569   1.75749569
   1.88172825   1.88172826   2.29876739   2.29876739   2.87413282
   2.99611654   2.99611654   3.28312288]
multiplicity <S^2> = -4.4408921e-15  2S+1 = 1
E1 = -194.22474160339277  Ecoul = 61.655278728349494
cycle= 12 E= -108.954086604747  delta_E= -1.71e-13  |g|= 3.2e-08  |ddm|= 5.23e-07
    CPU time for cycle= 12      0.16 sec, wall time      0.01 sec
Linear dependence found in DIIS error vectors.
  alpha nocc = 7  HOMO = -0.608023426243032  LUMO = 0.175488148372456
  beta  nocc = 7  HOMO = -0.608023425817709  LUMO = 0.175488148333341
  alpha mo_energy =
[-15.6865343  -15.68313782  -1.47097226  -0.77420096  -0.62619983
  -0.60802343  -0.60802343   0.17548815   0.17548815   0.59453366
   0.8202029    0.87230502   0.87230503   0.99220567   1.05096885
   1.05096885   1.14391828   1.64289877   1.75749569   1.75749569
   1.88172825   1.88172825   2.29876738   2.29876738   2.87413281
   2.99611653   2.99611653   3.28312286]
  beta  mo_energy =
[-15.6865343  -15.68313782  -1.47097226  -0.77420097  -0.62619983
  -0.60802343  -0.60802343   0.17548815   0.17548815   0.59453366
   0.82020291   0.87230502   0.87230503   0.99220567   1.05096885
   1.05096885   1.14391828   1.64289877   1.75749569   1.75749569
   1.88172825   1.88172825   2.29876738   2.29876738   2.87413281
   2.99611653   2.99611653   3.28312287]
multiplicity <S^2> = 5.3290705e-15  2S+1 = 1
E1 = -194.22474162645761  Ecoul = 61.65527875141434
cycle= 13 E= -108.954086604747  delta_E= 2.84e-14  |g|= 1.63e-08  |ddm|= 3.49e-08
    CPU time for cycle= 13      0.15 sec, wall time      0.01 sec
Linear dependence found in DIIS error vectors.
  alpha nocc = 7  HOMO = -0.608023432098472  LUMO = 0.175488145990202
  beta  nocc = 7  HOMO = -0.608023432219944  LUMO = 0.175488146046089
  alpha mo_energy =
[-15.6865343  -15.68313783  -1.47097226  -0.77420097  -0.62619983
  -0.60802343  -0.60802343   0.17548815   0.17548815   0.59453365
   0.8202029    0.87230502   0.87230502   0.99220567   1.05096885
   1.05096885   1.14391827   1.64289876   1.75749568   1.75749568
   1.88172824   1.88172824   2.29876738   2.29876738   2.87413281
   2.99611653   2.99611653   3.28312286]
  beta  mo_energy =
[-15.6865343  -15.68313783  -1.47097226  -0.77420097  -0.62619983
  -0.60802343  -0.60802343   0.17548815   0.17548815   0.59453365
   0.8202029    0.87230502   0.87230502   0.99220567   1.05096885
   1.05096885   1.14391827   1.64289876   1.75749568   1.75749568
   1.88172824   1.88172824   2.29876738   2.29876738   2.87413281
   2.99611653   2.99611653   3.28312286]
multiplicity <S^2> = 1.7763568e-15  2S+1 = 1
E1 = -194.22474163225826  Ecoul = 61.655278757215
cycle= 14 E= -108.954086604747  delta_E=    0  |g|= 2.67e-09  |ddm|= 3.51e-08
    CPU time for cycle= 14      0.15 sec, wall time      0.01 sec
Linear dependence found in DIIS error vectors.
  alpha nocc = 7  HOMO = -0.608023431832455  LUMO = 0.175488146008033
  beta  nocc = 7  HOMO = -0.608023432514582  LUMO = 0.175488145703897
  alpha mo_energy =
[-15.6865343  -15.68313783  -1.47097226  -0.77420097  -0.62619983
  -0.60802343  -0.60802343   0.17548815   0.17548815   0.59453365
   0.8202029    0.87230502   0.87230502   0.99220567   1.05096885
   1.05096885   1.14391827   1.64289876   1.75749568   1.75749568
   1.88172824   1.88172824   2.29876738   2.29876738   2.87413281
   2.99611653   2.99611653   3.28312286]
  beta  mo_energy =
[-15.68653431 -15.68313783  -1.47097226  -0.77420097  -0.62619983
  -0.60802343  -0.60802343   0.17548815   0.17548815   0.59453365
   0.8202029    0.87230502   0.87230502   0.99220567   1.05096885
   1.05096885   1.14391827   1.64289876   1.75749568   1.75749568
   1.88172824   1.88172824   2.29876738   2.29876738   2.87413281
   2.99611653   2.99611653   3.28312286]
multiplicity <S^2> = -8.8817842e-16  2S+1 = 1
E1 = -194.22474163310153  Ecoul = 61.65527875805816
cycle= 15 E= -108.954086604747  delta_E= -1.14e-13  |g|= 2.76e-09  |ddm|= 3.15e-09
    CPU time for cycle= 15      0.15 sec, wall time      0.01 sec
Linear dependence found in DIIS error vectors.
  alpha nocc = 7  HOMO = -0.608023431769656  LUMO = 0.175488146160233
  beta  nocc = 7  HOMO = -0.608023432331715  LUMO = 0.175488145891286
  alpha mo_energy =
[-15.6865343  -15.68313783  -1.47097226  -0.77420097  -0.62619983
  -0.60802343  -0.60802343   0.17548815   0.17548815   0.59453365
   0.8202029    0.87230502   0.87230502   0.99220567   1.05096885
   1.05096885   1.14391827   1.64289876   1.75749568   1.75749568
   1.88172824   1.88172824   2.29876738   2.29876738   2.87413281
   2.99611653   2.99611653   3.28312286]
  beta  mo_energy =
[-15.6865343  -15.68313783  -1.47097226  -0.77420097  -0.62619983
  -0.60802343  -0.60802343   0.17548815   0.17548815   0.59453365
   0.8202029    0.87230502   0.87230502   0.99220567   1.05096885
   1.05096885   1.14391827   1.64289876   1.75749568   1.75749568
   1.88172824   1.88172824   2.29876738   2.29876738   2.87413281
   2.99611653   2.99611653   3.28312286]
multiplicity <S^2> = -3.5527137e-15  2S+1 = 1
E1 = -194.2247416324508  Ecoul = 61.6552787574075
cycle= 16 E= -108.954086604747  delta_E= 8.53e-14  |g|= 2.16e-09  |ddm|= 1.48e-09
    CPU time for cycle= 16      0.15 sec, wall time      0.01 sec
Linear dependence found in DIIS error vectors.
  alpha nocc = 7  HOMO = -0.608023431817806  LUMO = 0.175488146210338
  beta  nocc = 7  HOMO = -0.608023432306647  LUMO = 0.175488145977541
  alpha mo_energy =
[-15.6865343  -15.68313783  -1.47097226  -0.77420097  -0.62619983
  -0.60802343  -0.60802343   0.17548815   0.17548815   0.59453365
   0.8202029    0.87230502   0.87230502   0.99220567   1.05096885
   1.05096885   1.14391827   1.64289876   1.75749568   1.75749568
   1.88172824   1.88172824   2.29876738   2.29876738   2.87413281
   2.99611653   2.99611653   3.28312286]
  beta  mo_energy =
[-15.6865343  -15.68313783  -1.47097226  -0.77420097  -0.62619983
  -0.60802343  -0.60802343   0.17548815   0.17548815   0.59453365
   0.8202029    0.87230502   0.87230502   0.99220567   1.05096885
   1.05096885   1.14391827   1.64289876   1.75749568   1.75749568
   1.88172824   1.88172824   2.29876738   2.29876738   2.87413281
   2.99611653   2.99611653   3.28312286]
multiplicity <S^2> = 0  2S+1 = 1
E1 = -194.22474163219  Ecoul = 61.65527875714668
cycle= 17 E= -108.954086604747  delta_E= -2.84e-14  |g|= 1.74e-09  |ddm|= 9.9e-10
    CPU time for cycle= 17      0.16 sec, wall time      0.01 sec
Linear dependence found in DIIS error vectors.
  alpha nocc = 7  HOMO = -0.608023431830478  LUMO = 0.175488146251817
  beta  nocc = 7  HOMO = -0.608023432263007  LUMO = 0.175488146048991
  alpha mo_energy =
[-15.6865343  -15.68313783  -1.47097226  -0.77420097  -0.62619983
  -0.60802343  -0.60802343   0.17548815   0.17548815   0.59453365
   0.8202029    0.87230502   0.87230502   0.99220567   1.05096885
   1.05096885   1.14391827   1.64289876   1.75749568   1.75749568
   1.88172824   1.88172824   2.29876738   2.29876738   2.87413281
   2.99611653   2.99611653   3.28312286]
  beta  mo_energy =
[-15.6865343  -15.68313783  -1.47097226  -0.77420097  -0.62619983
  -0.60802343  -0.60802343   0.17548815   0.17548815   0.59453365
   0.8202029    0.87230502   0.87230502   0.99220567   1.05096885
   1.05096885   1.14391827   1.64289876   1.75749568   1.75749568
   1.88172824   1.88172824   2.29876738   2.29876738   2.87413281
   2.99611653   2.99611653   3.28312286]
multiplicity <S^2> = -4.4408921e-15  2S+1 = 1
E1 = -194.22474163196364  Ecoul = 61.65527875692026
cycle= 18 E= -108.954086604747  delta_E= -5.68e-14  |g|= 1.51e-09  |ddm|= 5.44e-10
    CPU time for cycle= 18      0.16 sec, wall time      0.01 sec
Linear dependence found in DIIS error vectors.
  alpha nocc = 7  HOMO = -0.608023431713587  LUMO = 0.175488146259598
  beta  nocc = 7  HOMO = -0.608023431921767  LUMO = 0.175488146108068
  alpha mo_energy =
[-15.6865343  -15.68313783  -1.47097226  -0.77420097  -0.62619983
  -0.60802343  -0.60802343   0.17548815   0.17548815   0.59453365
   0.8202029    0.87230502   0.87230502   0.99220567   1.05096885
   1.05096885   1.14391827   1.64289876   1.75749568   1.75749568
   1.88172824   1.88172824   2.29876738   2.29876738   2.87413281
   2.99611653   2.99611653   3.28312286]
  beta  mo_energy =
[-15.6865343  -15.68313783  -1.47097226  -0.77420097  -0.62619983
  -0.60802343  -0.60802343   0.17548815   0.17548815   0.59453365
   0.8202029    0.87230502   0.87230502   0.99220567   1.05096885
   1.05096885   1.14391827   1.64289876   1.75749568   1.75749568
   1.88172824   1.88172824   2.29876738   2.29876738   2.87413281
   2.99611653   2.99611653   3.28312286]
multiplicity <S^2> = -4.4408921e-15  2S+1 = 1
E1 = -194.22474163240577  Ecoul = 61.65527875736251
cycle= 19 E= -108.954086604747  delta_E= 1.14e-13  |g|= 1.48e-09  |ddm|= 3.42e-09
    CPU time for cycle= 19      0.16 sec, wall time      0.01 sec
Linear dependence found in DIIS error vectors.
  alpha nocc = 7  HOMO = -0.608023431514673  LUMO = 0.175488146282994
  beta  nocc = 7  HOMO = -0.608023431643411  LUMO = 0.175488146200194
  alpha mo_energy =
[-15.6865343  -15.68313783  -1.47097226  -0.77420097  -0.62619983
  -0.60802343  -0.60802343   0.17548815   0.17548815   0.59453365
   0.8202029    0.87230502   0.87230502   0.99220567   1.05096885
   1.05096885   1.14391828   1.64289876   1.75749568   1.75749568
   1.88172824   1.88172824   2.29876738   2.29876738   2.87413281
   2.99611653   2.99611653   3.28312286]
  beta  mo_energy =
[-15.6865343  -15.68313783  -1.47097226  -0.77420097  -0.62619983
  -0.60802343  -0.60802343   0.17548815   0.17548815   0.59453365
   0.8202029    0.87230502   0.87230502   0.99220567   1.05096885
   1.05096885   1.14391827   1.64289876   1.75749568   1.75749568
   1.88172824   1.88172824   2.29876738   2.29876738   2.87413281
   2.99611653   2.99611653   3.28312286]
multiplicity <S^2> = -7.1054274e-15  2S+1 = 1
E1 = -194.22474163230686  Ecoul = 61.6552787572636
cycle= 20 E= -108.954086604747  delta_E=    0  |g|= 2.5e-09  |ddm|= 3.94e-09
    CPU time for cycle= 20      0.16 sec, wall time      0.01 sec
Linear dependence found in DIIS error vectors.
  alpha nocc = 7  HOMO = -0.608023431598063  LUMO = 0.17548814647566
  beta  nocc = 7  HOMO = -0.608023431745387  LUMO = 0.175488146404181
  alpha mo_energy =
[-15.6865343  -15.68313783  -1.47097226  -0.77420097  -0.62619983
  -0.60802343  -0.60802343   0.17548815   0.17548815   0.59453365
   0.8202029    0.87230502   0.87230502   0.99220567   1.05096885
   1.05096885   1.14391828   1.64289876   1.75749568   1.75749568
   1.88172824   1.88172824   2.29876738   2.29876738   2.87413281
   2.99611653   2.99611653   3.28312286]
  beta  mo_energy =
[-15.6865343  -15.68313783  -1.47097226  -0.77420097  -0.62619983
  -0.60802343  -0.60802343   0.17548815   0.17548815   0.59453365
   0.8202029    0.87230502   0.87230502   0.99220567   1.05096885
   1.05096885   1.14391827   1.64289876   1.75749568   1.75749568
   1.88172824   1.88172824   2.29876738   2.29876738   2.87413281
   2.99611653   2.99611653   3.28312286]
multiplicity <S^2> = -1.7763568e-15  2S+1 = 1
E1 = -194.22474163107034  Ecoul = 61.655278756027116
cycle= 21 E= -108.954086604747  delta_E= 2.84e-14  |g|= 1.3e-09  |ddm|= 2.67e-09
    CPU time for cycle= 21      0.16 sec, wall time      0.01 sec
Linear dependence found in DIIS error vectors.
  alpha nocc = 7  HOMO = -0.608023431703393  LUMO = 0.175488146525405
  beta  nocc = 7  HOMO = -0.608023431860018  LUMO = 0.175488146453394
  alpha mo_energy =
[-15.6865343  -15.68313783  -1.47097226  -0.77420097  -0.62619983
  -0.60802343  -0.60802343   0.17548815   0.17548815   0.59453365
   0.8202029    0.87230502   0.87230502   0.99220567   1.05096885
   1.05096885   1.14391827   1.64289876   1.75749568   1.75749568
   1.88172824   1.88172824   2.29876738   2.29876738   2.87413281
   2.99611653   2.99611653   3.28312286]
  beta  mo_energy =
[-15.6865343  -15.68313783  -1.47097226  -0.77420097  -0.62619983
  -0.60802343  -0.60802343   0.17548815   0.17548815   0.59453365
   0.8202029    0.87230502   0.87230502   0.99220567   1.05096885
   1.05096885   1.14391827   1.64289876   1.75749568   1.75749568
   1.88172824   1.88172824   2.29876738   2.29876738   2.87413281
   2.99611653   2.99611653   3.28312286]
multiplicity <S^2> = -2.6645353e-15  2S+1 = 1
E1 = -194.22474163074332  Ecoul = 61.655278755699975
cycle= 22 E= -108.954086604747  delta_E= -1.14e-13  |g|= 7.24e-10  |ddm|= 1.4e-09
    CPU time for cycle= 22      0.17 sec, wall time      0.01 sec
Linear dependence found in DIIS error vectors.
  alpha nocc = 7  HOMO = -0.608023431712253  LUMO = 0.175488146519801
  beta  nocc = 7  HOMO = -0.608023431876787  LUMO = 0.175488146442336
  alpha mo_energy =
[-15.6865343  -15.68313783  -1.47097226  -0.77420097  -0.62619983
  -0.60802343  -0.60802343   0.17548815   0.17548815   0.59453365
   0.8202029    0.87230502   0.87230502   0.99220567   1.05096885
   1.05096885   1.14391827   1.64289876   1.75749568   1.75749568
   1.88172824   1.88172824   2.29876738   2.29876738   2.87413281
   2.99611653   2.99611653   3.28312286]
  beta  mo_energy =
[-15.6865343  -15.68313783  -1.47097226  -0.77420097  -0.62619983
  -0.60802343  -0.60802343   0.17548815   0.17548815   0.59453365
   0.8202029    0.87230502   0.87230502   0.99220567   1.05096885
   1.05096885   1.14391827   1.64289876   1.75749568   1.75749568
   1.88172824   1.88172824   2.29876738   2.29876738   2.87413281
   2.99611653   2.99611653   3.28312286]
multiplicity <S^2> = 3.5527137e-15  2S+1 = 1
E1 = -194.2247416307954  Ecoul = 61.65527875575219
cycle= 23 E= -108.954086604747  delta_E= 1.42e-13  |g|= 6.65e-10  |ddm|= 1.58e-10
    CPU time for cycle= 23      0.17 sec, wall time      0.01 sec
Linear dependence found in DIIS error vectors.
  alpha nocc = 7  HOMO = -0.608023431753971  LUMO = 0.175488146503676
  beta  nocc = 7  HOMO = -0.608023431889045  LUMO = 0.175488146439396
  alpha mo_energy =
[-15.6865343  -15.68313783  -1.47097226  -0.77420097  -0.62619983
  -0.60802343  -0.60802343   0.17548815   0.17548815   0.59453365
   0.8202029    0.87230502   0.87230502   0.99220567   1.05096885
   1.05096885   1.14391827   1.64289876   1.75749568   1.75749568
   1.88172824   1.88172824   2.29876738   2.29876738   2.87413281
   2.99611653   2.99611653   3.28312286]
  beta  mo_energy =
[-15.6865343  -15.68313783  -1.47097226  -0.77420097  -0.62619983
  -0.60802343  -0.60802343   0.17548815   0.17548815   0.59453365
   0.8202029    0.87230502   0.87230502   0.99220567   1.05096885
   1.05096885   1.14391827   1.64289876   1.75749568   1.75749568
   1.88172824   1.88172824   2.29876738   2.29876738   2.87413281
   2.99611653   2.99611653   3.28312286]
multiplicity <S^2> = -1.7763568e-15  2S+1 = 1
E1 = -194.22474163087105  Ecoul = 61.65527875582781
cycle= 24 E= -108.954086604747  delta_E= -5.68e-14  |g|= 5.66e-10  |ddm|= 2.56e-10
    CPU time for cycle= 24      0.16 sec, wall time      0.01 sec
Linear dependence found in DIIS error vectors.
  alpha nocc = 7  HOMO = -0.608023431785947  LUMO = 0.175488146491601
  beta  nocc = 7  HOMO = -0.608023431896981  LUMO = 0.175488146438726
  alpha mo_energy =
[-15.6865343  -15.68313783  -1.47097226  -0.77420097  -0.62619983
  -0.60802343  -0.60802343   0.17548815   0.17548815   0.59453365
   0.8202029    0.87230502   0.87230502   0.99220567   1.05096885
   1.05096885   1.14391827   1.64289876   1.75749568   1.75749568
   1.88172824   1.88172824   2.29876738   2.29876738   2.87413281
   2.99611653   2.99611653   3.28312286]
  beta  mo_energy =
[-15.6865343  -15.68313783  -1.47097226  -0.77420097  -0.62619983
  -0.60802343  -0.60802343   0.17548815   0.17548815   0.59453365
   0.8202029    0.87230502   0.87230502   0.99220567   1.05096885
   1.05096885   1.14391827   1.64289876   1.75749568   1.75749568
   1.88172824   1.88172824   2.29876738   2.29876738   2.87413281
   2.99611653   2.99611653   3.28312286]
multiplicity <S^2> = 8.8817842e-16  2S+1 = 1
E1 = -194.22474163092193  Ecoul = 61.655278755878605
cycle= 25 E= -108.954086604747  delta_E= -5.68e-14  |g|= 4.91e-10  |ddm|= 1.96e-10
    CPU time for cycle= 25      0.16 sec, wall time      0.01 sec
Linear dependence found in DIIS error vectors.
  alpha nocc = 7  HOMO = -0.608023431811667  LUMO = 0.175488146481348
  beta  nocc = 7  HOMO = -0.608023431901768  LUMO = 0.17548814643842
  alpha mo_energy =
[-15.6865343  -15.68313783  -1.47097226  -0.77420097  -0.62619983
  -0.60802343  -0.60802343   0.17548815   0.17548815   0.59453365
   0.8202029    0.87230502   0.87230502   0.99220567   1.05096885
   1.05096885   1.14391827   1.64289876   1.75749568   1.75749568
   1.88172824   1.88172824   2.29876738   2.29876738   2.87413281
   2.99611653   2.99611653   3.28312286]
  beta  mo_energy =
[-15.6865343  -15.68313783  -1.47097226  -0.77420097  -0.62619983
  -0.60802343  -0.60802343   0.17548815   0.17548815   0.59453365
   0.8202029    0.87230502   0.87230502   0.99220567   1.05096885
   1.05096885   1.14391827   1.64289876   1.75749568   1.75749568
   1.88172824   1.88172824   2.29876738   2.29876738   2.87413281
   2.99611653   2.99611653   3.28312286]
multiplicity <S^2> = -3.5527137e-15  2S+1 = 1
E1 = -194.2247416309653  Ecoul = 61.655278755922026
cycle= 26 E= -108.954086604747  delta_E= 5.68e-14  |g|= 4.36e-10  |ddm|= 1.56e-10
    CPU time for cycle= 26      0.17 sec, wall time      0.01 sec
Linear dependence found in DIIS error vectors.
  alpha nocc = 7  HOMO = -0.608023431833212  LUMO = 0.175488146472782
  beta  nocc = 7  HOMO = -0.608023431904414  LUMO = 0.175488146438724
  alpha mo_energy =
[-15.6865343  -15.68313783  -1.47097226  -0.77420097  -0.62619983
  -0.60802343  -0.60802343   0.17548815   0.17548815   0.59453365
   0.8202029    0.87230502   0.87230502   0.99220567   1.05096885
   1.05096885   1.14391827   1.64289876   1.75749568   1.75749568
   1.88172824   1.88172824   2.29876738   2.29876738   2.87413281
   2.99611653   2.99611653   3.28312286]
  beta  mo_energy =
[-15.6865343  -15.68313783  -1.47097226  -0.77420097  -0.62619983
  -0.60802343  -0.60802343   0.17548815   0.17548815   0.59453365
   0.8202029    0.87230502   0.87230502   0.99220567   1.05096885
   1.05096885   1.14391827   1.64289876   1.75749568   1.75749568
   1.88172824   1.88172824   2.29876738   2.29876738   2.87413281
   2.99611653   2.99611653   3.28312286]
multiplicity <S^2> = 8.8817842e-16  2S+1 = 1
E1 = -194.2247416310014  Ecoul = 61.65527875595818
cycle= 27 E= -108.954086604747  delta_E= 5.68e-14  |g|= 3.89e-10  |ddm|= 1.39e-10
    CPU time for cycle= 27      0.16 sec, wall time      0.01 sec
Linear dependence found in DIIS error vectors.
  alpha nocc = 7  HOMO = -0.608023431859303  LUMO = 0.175488146465183
  beta  nocc = 7  HOMO = -0.608023431923471  LUMO = 0.175488146436494
  alpha mo_energy =
[-15.6865343  -15.68313783  -1.47097226  -0.77420097  -0.62619983
  -0.60802343  -0.60802343   0.17548815   0.17548815   0.59453365
   0.8202029    0.87230502   0.87230502   0.99220567   1.05096885
   1.05096885   1.14391827   1.64289876   1.75749568   1.75749568
   1.88172824   1.88172824   2.29876738   2.29876738   2.87413281
   2.99611653   2.99611653   3.28312286]
  beta  mo_energy =
[-15.6865343  -15.68313783  -1.47097226  -0.77420097  -0.62619983
  -0.60802343  -0.60802343   0.17548815   0.17548815   0.59453365
   0.8202029    0.87230502   0.87230502   0.99220567   1.05096885
   1.05096885   1.14391827   1.64289876   1.75749568   1.75749568
   1.88172824   1.88172824   2.29876738   2.29876738   2.87413281
   2.99611653   2.99611653   3.28312286]
multiplicity <S^2> = -1.7763568e-15  2S+1 = 1
E1 = -194.22474163103027  Ecoul = 61.65527875598701
cycle= 28 E= -108.954086604747  delta_E= -5.68e-14  |g|= 3.69e-10  |ddm|= 8.53e-11
    CPU time for cycle= 28      0.16 sec, wall time      0.01 sec
Linear dependence found in DIIS error vectors.
  alpha nocc = 7  HOMO = -0.608023431890761  LUMO = 0.175488146460983
  beta  nocc = 7  HOMO = -0.608023431948227  LUMO = 0.175488146435388
  alpha mo_energy =
[-15.6865343  -15.68313783  -1.47097226  -0.77420097  -0.62619983
  -0.60802343  -0.60802343   0.17548815   0.17548815   0.59453365
   0.8202029    0.87230502   0.87230502   0.99220567   1.05096885
   1.05096885   1.14391827   1.64289876   1.75749568   1.75749568
   1.88172824   1.88172824   2.29876738   2.29876738   2.87413281
   2.99611653   2.99611653   3.28312286]
  beta  mo_energy =
[-15.6865343  -15.68313783  -1.47097226  -0.77420097  -0.62619983
  -0.60802343  -0.60802343   0.17548815   0.17548815   0.59453365
   0.8202029    0.87230502   0.87230502   0.99220567   1.05096885
   1.05096885   1.14391827   1.64289876   1.75749568   1.75749568
   1.88172824   1.88172824   2.29876738   2.29876738   2.87413281
   2.99611653   2.99611653   3.28312286]
multiplicity <S^2> = -1.7763568e-15  2S+1 = 1
E1 = -194.22474163104425  Ecoul = 61.65527875600091
cycle= 29 E= -108.954086604747  delta_E= -8.53e-14  |g|= 2.67e-10  |ddm|= 2.4e-10
    CPU time for cycle= 29      0.16 sec, wall time      0.01 sec
Linear dependence found in DIIS error vectors.
  alpha nocc = 7  HOMO = -0.608023431903444  LUMO = 0.175488146461311
  beta  nocc = 7  HOMO = -0.608023431954567  LUMO = 0.175488146438463
  alpha mo_energy =
[-15.6865343  -15.68313783  -1.47097226  -0.77420097  -0.62619983
  -0.60802343  -0.60802343   0.17548815   0.17548815   0.59453365
   0.8202029    0.87230502   0.87230502   0.99220567   1.05096885
   1.05096885   1.14391827   1.64289876   1.75749568   1.75749568
   1.88172824   1.88172824   2.29876738   2.29876738   2.87413281
   2.99611653   2.99611653   3.28312286]
  beta  mo_energy =
[-15.6865343  -15.68313783  -1.47097226  -0.77420097  -0.62619983
  -0.60802343  -0.60802343   0.17548815   0.17548815   0.59453365
   0.8202029    0.87230502   0.87230502   0.99220567   1.05096885
   1.05096885   1.14391827   1.64289876   1.75749568   1.75749568
   1.88172824   1.88172824   2.29876738   2.29876738   2.87413281
   2.99611653   2.99611653   3.28312286]
multiplicity <S^2> = 8.8817842e-16  2S+1 = 1
E1 = -194.22474163103712  Ecoul = 61.65527875599384
cycle= 30 E= -108.954086604747  delta_E= 5.68e-14  |g|= 2.15e-10  |ddm|= 1.25e-10
    CPU time for cycle= 30      0.16 sec, wall time      0.01 sec
Linear dependence found in DIIS error vectors.
  alpha nocc = 7  HOMO = -0.608023431908456  LUMO = 0.175488146462082
  beta  nocc = 7  HOMO = -0.608023431953288  LUMO = 0.175488146442066
  alpha mo_energy =
[-15.6865343  -15.68313783  -1.47097226  -0.77420097  -0.62619983
  -0.60802343  -0.60802343   0.17548815   0.17548815   0.59453365
   0.8202029    0.87230502   0.87230502   0.99220567   1.05096885
   1.05096885   1.14391827   1.64289876   1.75749568   1.75749568
   1.88172824   1.88172824   2.29876738   2.29876738   2.87413281
   2.99611653   2.99611653   3.28312286]
  beta  mo_energy =
[-15.6865343  -15.68313783  -1.47097226  -0.77420097  -0.62619983
  -0.60802343  -0.60802343   0.17548815   0.17548815   0.59453365
   0.8202029    0.87230502   0.87230502   0.99220567   1.05096885
   1.05096885   1.14391827   1.64289876   1.75749568   1.75749568
   1.88172824   1.88172824   2.29876738   2.29876738   2.87413281
   2.99611653   2.99611653   3.28312286]
multiplicity <S^2> = -4.4408921e-15  2S+1 = 1
E1 = -194.2247416310277  Ecoul = 61.65527875598456
cycle= 31 E= -108.954086604747  delta_E= 1.42e-13  |g|= 1.88e-10  |ddm|= 6.79e-11
    CPU time for cycle= 31      0.16 sec, wall time      0.01 sec
Linear dependence found in DIIS error vectors.
  alpha nocc = 7  HOMO = -0.608023431914209  LUMO = 0.175488146462383
  beta  nocc = 7  HOMO = -0.60802343195203  LUMO = 0.175488146445606
  alpha mo_energy =
[-15.6865343  -15.68313783  -1.47097226  -0.77420097  -0.62619983
  -0.60802343  -0.60802343   0.17548815   0.17548815   0.59453365
   0.8202029    0.87230502   0.87230502   0.99220567   1.05096885
   1.05096885   1.14391827   1.64289876   1.75749568   1.75749568
   1.88172824   1.88172824   2.29876738   2.29876738   2.87413281
   2.99611653   2.99611653   3.28312286]
  beta  mo_energy =
[-15.6865343  -15.68313783  -1.47097226  -0.77420097  -0.62619983
  -0.60802343  -0.60802343   0.17548815   0.17548815   0.59453365
   0.8202029    0.87230502   0.87230502   0.99220567   1.05096885
   1.05096885   1.14391827   1.64289876   1.75749568   1.75749568
   1.88172824   1.88172824   2.29876738   2.29876738   2.87413281
   2.99611653   2.99611653   3.28312286]
multiplicity <S^2> = -8.8817842e-16  2S+1 = 1
E1 = -194.22474163102015  Ecoul = 61.65527875597684
cycle= 32 E= -108.954086604747  delta_E= -1.71e-13  |g|= 1.62e-10  |ddm|= 6.55e-11
    CPU time for cycle= 32      0.16 sec, wall time      0.01 sec
Linear dependence found in DIIS error vectors.
  alpha nocc = 7  HOMO = -0.608023431919426  LUMO = 0.175488146462457
  beta  nocc = 7  HOMO = -0.608023431951526  LUMO = 0.17548814644834
  alpha mo_energy =
[-15.6865343  -15.68313783  -1.47097226  -0.77420097  -0.62619983
  -0.60802343  -0.60802343   0.17548815   0.17548815   0.59453365
   0.8202029    0.87230502   0.87230502   0.99220567   1.05096885
   1.05096885   1.14391827   1.64289876   1.75749568   1.75749568
   1.88172824   1.88172824   2.29876738   2.29876738   2.87413281
   2.99611653   2.99611653   3.28312286]
  beta  mo_energy =
[-15.6865343  -15.68313783  -1.47097226  -0.77420097  -0.62619983
  -0.60802343  -0.60802343   0.17548815   0.17548815   0.59453365
   0.8202029    0.87230502   0.87230502   0.99220567   1.05096885
   1.05096885   1.14391827   1.64289876   1.75749568   1.75749568
   1.88172824   1.88172824   2.29876738   2.29876738   2.87413281
   2.99611653   2.99611653   3.28312286]
multiplicity <S^2> = -3.5527137e-15  2S+1 = 1
E1 = -194.22474163101452  Ecoul = 61.65527875597127
cycle= 33 E= -108.954086604747  delta_E= 5.68e-14  |g|= 1.4e-10  |ddm|= 5.5e-11
    CPU time for cycle= 33      0.16 sec, wall time      0.01 sec
Linear dependence found in DIIS error vectors.
  alpha nocc = 7  HOMO = -0.60802343192416  LUMO = 0.175488146462427
  beta  nocc = 7  HOMO = -0.608023431951577  LUMO = 0.175488146450477
  alpha mo_energy =
[-15.6865343  -15.68313783  -1.47097226  -0.77420097  -0.62619983
  -0.60802343  -0.60802343   0.17548815   0.17548815   0.59453365
   0.8202029    0.87230502   0.87230502   0.99220567   1.05096885
   1.05096885   1.14391827   1.64289876   1.75749568   1.75749568
   1.88172824   1.88172824   2.29876738   2.29876738   2.87413281
   2.99611653   2.99611653   3.28312286]
  beta  mo_energy =
[-15.6865343  -15.68313783  -1.47097226  -0.77420097  -0.62619983
  -0.60802343  -0.60802343   0.17548815   0.17548815   0.59453365
   0.8202029    0.87230502   0.87230502   0.99220567   1.05096885
   1.05096885   1.14391827   1.64289876   1.75749568   1.75749568
   1.88172824   1.88172824   2.29876738   2.29876738   2.87413281
   2.99611653   2.99611653   3.28312286]
multiplicity <S^2> = 2.6645353e-15  2S+1 = 1
E1 = -194.2247416310103  Ecoul = 61.65527875596706
cycle= 34 E= -108.954086604747  delta_E= 2.84e-14  |g|= 1.21e-10  |ddm|= 4.72e-11
    CPU time for cycle= 34      0.16 sec, wall time      0.01 sec
Linear dependence found in DIIS error vectors.
  alpha nocc = 7  HOMO = -0.60802343192854  LUMO = 0.17548814646233
  beta  nocc = 7  HOMO = -0.608023431952173  LUMO = 0.175488146452118
  alpha mo_energy =
[-15.6865343  -15.68313783  -1.47097226  -0.77420097  -0.62619983
  -0.60802343  -0.60802343   0.17548815   0.17548815   0.59453365
   0.8202029    0.87230502   0.87230502   0.99220567   1.05096885
   1.05096885   1.14391827   1.64289876   1.75749568   1.75749568
   1.88172824   1.88172824   2.29876738   2.29876738   2.87413281
   2.99611653   2.99611653   3.28312286]
  beta  mo_energy =
[-15.6865343  -15.68313783  -1.47097226  -0.77420097  -0.62619983
  -0.60802343  -0.60802343   0.17548815   0.17548815   0.59453365
   0.8202029    0.87230502   0.87230502   0.99220567   1.05096885
   1.05096885   1.14391827   1.64289876   1.75749568   1.75749568
   1.88172824   1.88172824   2.29876738   2.29876738   2.87413281
   2.99611653   2.99611653   3.28312286]
multiplicity <S^2> = 0  2S+1 = 1
E1 = -194.2247416310074  Ecoul = 61.65527875596416
cycle= 35 E= -108.954086604747  delta_E=    0  |g|= 1.05e-10  |ddm|= 4.16e-11
    CPU time for cycle= 35      0.17 sec, wall time      0.01 sec
Linear dependence found in DIIS error vectors.
  alpha nocc = 7  HOMO = -0.608023431932599  LUMO = 0.175488146462206
  beta  nocc = 7  HOMO = -0.608023431953283  LUMO = 0.175488146453333
  alpha mo_energy =
[-15.6865343  -15.68313783  -1.47097226  -0.77420097  -0.62619983
  -0.60802343  -0.60802343   0.17548815   0.17548815   0.59453365
   0.8202029    0.87230502   0.87230502   0.99220567   1.05096885
   1.05096885   1.14391827   1.64289876   1.75749568   1.75749568
   1.88172824   1.88172824   2.29876738   2.29876738   2.87413281
   2.99611653   2.99611653   3.28312286]
  beta  mo_energy =
[-15.6865343  -15.68313783  -1.47097226  -0.77420097  -0.62619983
  -0.60802343  -0.60802343   0.17548815   0.17548815   0.59453365
   0.8202029    0.87230502   0.87230502   0.99220567   1.05096885
   1.05096885   1.14391827   1.64289876   1.75749568   1.75749568
   1.88172824   1.88172824   2.29876738   2.29876738   2.87413281
   2.99611653   2.99611653   3.28312286]
multiplicity <S^2> = 1.7763568e-15  2S+1 = 1
E1 = -194.22474163100532  Ecoul = 61.65527875596206
cycle= 36 E= -108.954086604747  delta_E= -2.84e-14  |g|= 8.96e-11  |ddm|= 3.68e-11
    CPU time for cycle= 36      0.17 sec, wall time      0.01 sec
  alpha nocc = 7  HOMO = -0.608023431944945  LUMO = 0.175488146460309
  beta  nocc = 7  HOMO = -0.608023431955047  LUMO = 0.175488146456042
  alpha mo_energy =
[-15.6865343  -15.68313783  -1.47097226  -0.77420097  -0.62619983
  -0.60802343  -0.60802343   0.17548815   0.17548815   0.59453365
   0.8202029    0.87230502   0.87230502   0.99220567   1.05096885
   1.05096885   1.14391827   1.64289876   1.75749568   1.75749568
   1.88172824   1.88172824   2.29876738   2.29876738   2.87413281
   2.99611653   2.99611653   3.28312286]
  beta  mo_energy =
[-15.6865343  -15.68313783  -1.47097226  -0.77420097  -0.62619983
  -0.60802343  -0.60802343   0.17548815   0.17548815   0.59453365
   0.8202029    0.87230502   0.87230502   0.99220567   1.05096885
   1.05096885   1.14391827   1.64289876   1.75749568   1.75749568
   1.88172824   1.88172824   2.29876738   2.29876738   2.87413281
   2.99611653   2.99611653   3.28312286]
multiplicity <S^2> = 8.8817842e-16  2S+1 = 1
E1 = -194.22474163100594  Ecoul = 61.655278755962655
Extra cycle  E= -108.954086604747  delta_E= -2.84e-14  |g|= 4.22e-11  |ddm|= 1.19e-10
    CPU time for scf_cycle      8.66 sec, wall time      0.38 sec
    CPU time for SCF      8.66 sec, wall time      0.38 sec
converged SCF energy = -108.954086604747  <S^2> = 8.8817842e-16  2S+1 = 1
loop example
davidson 0 1  |r|= 2.59  e= [2.56696273]  max|de|= 2.57  lindep= 0.891
davidson 1 2  |r|= 1.11  e= [1.76525727]  max|de|= -0.802  lindep= 0.928
davidson 2 3  |r|= 0.659  e= [0.64811158]  max|de|= -1.12  lindep= 0.982
davidson 3 4  |r|= 0.56  e= [0.41727032]  max|de|= -0.231  lindep= 0.994
davidson 4 5  |r|= 0.385  e= [0.27943142]  max|de|= -0.138  lindep= 0.952
davidson 5 6  |r|= 0.294  e= [0.17571915]  max|de|= -0.104  lindep= 0.977
davidson 6 7  |r|= 0.15  e= [0.13153655]  max|de|= -0.0442  lindep= 0.953
davidson 7 8  |r|= 0.145  e= [0.10941023]  max|de|= -0.0221  lindep= 0.967
davidson 8 9  |r|= 0.12  e= [0.09403334]  max|de|= -0.0154  lindep= 0.932
davidson 9 10  |r|= 0.068  e= [0.08646115]  max|de|= -0.00757  lindep= 0.967
davidson 10 11  |r|= 0.0391  e= [0.08390076]  max|de|= -0.00256  lindep= 0.955
davidson 11 12  |r|= 0.0151  e= [0.08333462]  max|de|= -0.000566  lindep= 0.908
davidson 12 1  |r|= 0.0151  e= [0.08333462]  max|de|= 7.63e-16  lindep=    1
root 0 converged  |r|= 0.00616  e= 0.08326725159190695  max|de|= -6.74e-05
converged 13 2  |r|= 0.00616  e= [0.08326725]  max|de|= -6.74e-05
<class 'pyscf.scf.uhf.UHF'> wavefunction is stable in the internal stability analysis
(28, 28)
(2, 28, 28)
mo energy: (28,)
total 2e- integral energy: 61.655278755962634
(28, 28, 28, 28)
final rhf/uhf energy: -108.95408660474686
moE: [-15.6865343  -15.68313783  -1.47097226  -0.77420097  -0.62619983
  -0.60802343  -0.60802343   0.17548815   0.17548815   0.59453365
   0.8202029    0.87230502   0.87230502   0.99220567   1.05096885
   1.05096885   1.14391827   1.64289876   1.75749568   1.75749568
   1.88172824   1.88172824   2.29876738   2.29876738   2.87413281
   2.99611653   2.99611653   3.28312286] [-15.6865343  -15.68313783  -1.47097226  -0.77420097  -0.62619983
  -0.60802343  -0.60802343   0.17548815   0.17548815   0.59453365
   0.8202029    0.87230502   0.87230502   0.99220567   1.05096885
   1.05096885   1.14391827   1.64289876   1.75749568   1.75749568
   1.88172824   1.88172824   2.29876738   2.29876738   2.87413281
   2.99611653   2.99611653   3.28312286]
slice(None, 7, None) slice(7, None, None)
eabij_aa: [[[[-0.03152183 -0.03152521 -0.05711517 ... -0.06001064 -0.06007617
    -0.06007617]
   [-0.03152521 -0.03152858 -0.05712625 ... -0.06002288 -0.06008843
    -0.06008843]
   [-0.05711517 -0.05712625 -0.30368176 ... -0.40847197 -0.41152738
    -0.41152738]
   ...
   [-0.06001064 -0.06002288 -0.40847197 ... -0.62368404 -0.6308354
    -0.6308354 ]
   [-0.06007617 -0.06008843 -0.41152738 ... -0.6308354  -0.63815266
    -0.63815266]
   [-0.06007617 -0.06008843 -0.41152738 ... -0.6308354  -0.63815266
    -0.63815266]]

  [[-0.03152183 -0.03152521 -0.05711517 ... -0.06001064 -0.06007617
    -0.06007617]
   [-0.03152521 -0.03152858 -0.05712625 ... -0.06002288 -0.06008843
    -0.06008843]
   [-0.05711517 -0.05712625 -0.30368176 ... -0.40847197 -0.41152738
    -0.41152738]
   ...
   [-0.06001064 -0.06002288 -0.40847197 ... -0.62368404 -0.6308354
    -0.6308354 ]
   [-0.06007617 -0.06008843 -0.41152738 ... -0.6308354  -0.63815266
    -0.63815266]
   [-0.06007617 -0.06008843 -0.41152738 ... -0.6308354  -0.63815266
    -0.63815266]]

  [[-0.03111089 -0.03111417 -0.05578014 ... -0.05853856 -0.05860092
    -0.05860092]
   [-0.03111417 -0.03111746 -0.05579071 ... -0.05855021 -0.05861258
    -0.05861258]
   [-0.05578014 -0.05579071 -0.269399   ... -0.34877306 -0.3509982
    -0.3509982 ]
   ...
   [-0.05853856 -0.05855021 -0.34877306 ... -0.49445678 -0.49894098
    -0.49894098]
   [-0.05860092 -0.05861258 -0.3509982  ... -0.49894098 -0.50350726
    -0.50350726]
   [-0.05860092 -0.05861258 -0.3509982  ... -0.49894098 -0.50350726
    -0.50350726]]

  ...

  [[-0.02894802 -0.02895087 -0.04919054 ... -0.05132327 -0.05137119
    -0.05137119]
   [-0.02895087 -0.02895372 -0.04919876 ... -0.05133222 -0.05138016
    -0.05138016]
   [-0.04919054 -0.04919876 -0.16357111 ... -0.18979737 -0.19045441
    -0.19045441]
   ...
   [-0.05132327 -0.05133222 -0.18979737 ... -0.22603956 -0.2269721
    -0.2269721 ]
   [-0.05137119 -0.05138016 -0.19045441 ... -0.2269721  -0.22791236
    -0.22791236]
   [-0.05137119 -0.05138016 -0.19045441 ... -0.2269721  -0.22791236
    -0.22791236]]

  [[-0.02894802 -0.02895087 -0.04919054 ... -0.05132327 -0.05137119
    -0.05137119]
   [-0.02895087 -0.02895372 -0.04919876 ... -0.05133222 -0.05138016
    -0.05138016]
   [-0.04919054 -0.04919876 -0.16357111 ... -0.18979737 -0.19045441
    -0.19045441]
   ...
   [-0.05132327 -0.05133222 -0.18979737 ... -0.22603956 -0.2269721
    -0.2269721 ]
   [-0.05137119 -0.05138016 -0.19045441 ... -0.2269721  -0.22791236
    -0.22791236]
   [-0.05137119 -0.05138016 -0.19045441 ... -0.2269721  -0.22791236
    -0.22791236]]

  [[-0.0287095  -0.0287123  -0.04850574 ... -0.05057825 -0.05062479
    -0.05062479]
   [-0.0287123  -0.0287151  -0.04851373 ... -0.05058694 -0.0506335
    -0.0506335 ]
   [-0.04850574 -0.04851373 -0.15623644 ... -0.17999263 -0.18058343
    -0.18058343]
   ...
   [-0.05057825 -0.05058694 -0.17999263 ... -0.21226868 -0.21309084
    -0.21309084]
   [-0.05062479 -0.0506335  -0.18058343 ... -0.21309084 -0.2139194
    -0.2139194 ]
   [-0.05062479 -0.0506335  -0.18058343 ... -0.21309084 -0.2139194
    -0.2139194 ]]]


 [[[-0.03152183 -0.03152521 -0.05711517 ... -0.06001064 -0.06007617
    -0.06007617]
   [-0.03152521 -0.03152858 -0.05712625 ... -0.06002288 -0.06008843
    -0.06008843]
   [-0.05711517 -0.05712625 -0.30368176 ... -0.40847197 -0.41152738
    -0.41152738]
   ...
   [-0.06001064 -0.06002288 -0.40847197 ... -0.62368404 -0.6308354
    -0.6308354 ]
   [-0.06007617 -0.06008843 -0.41152738 ... -0.6308354  -0.63815266
    -0.63815266]
   [-0.06007617 -0.06008843 -0.41152738 ... -0.6308354  -0.63815266
    -0.63815266]]

  [[-0.03152183 -0.03152521 -0.05711517 ... -0.06001064 -0.06007617
    -0.06007617]
   [-0.03152521 -0.03152858 -0.05712625 ... -0.06002288 -0.06008843
    -0.06008843]
   [-0.05711517 -0.05712625 -0.30368176 ... -0.40847197 -0.41152738
    -0.41152738]
   ...
   [-0.06001064 -0.06002288 -0.40847197 ... -0.62368404 -0.6308354
    -0.6308354 ]
   [-0.06007617 -0.06008843 -0.41152738 ... -0.6308354  -0.63815266
    -0.63815266]
   [-0.06007617 -0.06008843 -0.41152738 ... -0.6308354  -0.63815266
    -0.63815266]]

  [[-0.03111089 -0.03111417 -0.05578014 ... -0.05853856 -0.05860092
    -0.05860092]
   [-0.03111417 -0.03111746 -0.05579071 ... -0.05855021 -0.05861258
    -0.05861258]
   [-0.05578014 -0.05579071 -0.269399   ... -0.34877306 -0.3509982
    -0.3509982 ]
   ...
   [-0.05853856 -0.05855021 -0.34877306 ... -0.49445678 -0.49894098
    -0.49894098]
   [-0.05860092 -0.05861258 -0.3509982  ... -0.49894098 -0.50350726
    -0.50350726]
   [-0.05860092 -0.05861258 -0.3509982  ... -0.49894098 -0.50350726
    -0.50350726]]

  ...

  [[-0.02894802 -0.02895087 -0.04919054 ... -0.05132327 -0.05137119
    -0.05137119]
   [-0.02895087 -0.02895372 -0.04919876 ... -0.05133222 -0.05138016
    -0.05138016]
   [-0.04919054 -0.04919876 -0.16357111 ... -0.18979737 -0.19045441
    -0.19045441]
   ...
   [-0.05132327 -0.05133222 -0.18979737 ... -0.22603956 -0.2269721
    -0.2269721 ]
   [-0.05137119 -0.05138016 -0.19045441 ... -0.2269721  -0.22791236
    -0.22791236]
   [-0.05137119 -0.05138016 -0.19045441 ... -0.2269721  -0.22791236
    -0.22791236]]

  [[-0.02894802 -0.02895087 -0.04919054 ... -0.05132327 -0.05137119
    -0.05137119]
   [-0.02895087 -0.02895372 -0.04919876 ... -0.05133222 -0.05138016
    -0.05138016]
   [-0.04919054 -0.04919876 -0.16357111 ... -0.18979737 -0.19045441
    -0.19045441]
   ...
   [-0.05132327 -0.05133222 -0.18979737 ... -0.22603956 -0.2269721
    -0.2269721 ]
   [-0.05137119 -0.05138016 -0.19045441 ... -0.2269721  -0.22791236
    -0.22791236]
   [-0.05137119 -0.05138016 -0.19045441 ... -0.2269721  -0.22791236
    -0.22791236]]

  [[-0.0287095  -0.0287123  -0.04850574 ... -0.05057825 -0.05062479
    -0.05062479]
   [-0.0287123  -0.0287151  -0.04851373 ... -0.05058694 -0.0506335
    -0.0506335 ]
   [-0.04850574 -0.04851373 -0.15623644 ... -0.17999263 -0.18058343
    -0.18058343]
   ...
   [-0.05057825 -0.05058694 -0.17999263 ... -0.21226868 -0.21309084
    -0.21309084]
   [-0.05062479 -0.0506335  -0.18058343 ... -0.21309084 -0.2139194
    -0.2139194 ]
   [-0.05062479 -0.0506335  -0.18058343 ... -0.21309084 -0.2139194
    -0.2139194 ]]]


 [[[-0.03111089 -0.03111417 -0.05578014 ... -0.05853856 -0.05860092
    -0.05860092]
   [-0.03111417 -0.03111746 -0.05579071 ... -0.05855021 -0.05861258
    -0.05861258]
   [-0.05578014 -0.05579071 -0.269399   ... -0.34877306 -0.3509982
    -0.3509982 ]
   ...
   [-0.05853856 -0.05855021 -0.34877306 ... -0.49445678 -0.49894098
    -0.49894098]
   [-0.05860092 -0.05861258 -0.3509982  ... -0.49894098 -0.50350726
    -0.50350726]
   [-0.05860092 -0.05861258 -0.3509982  ... -0.49894098 -0.50350726
    -0.50350726]]

  [[-0.03111089 -0.03111417 -0.05578014 ... -0.05853856 -0.05860092
    -0.05860092]
   [-0.03111417 -0.03111746 -0.05579071 ... -0.05855021 -0.05861258
    -0.05861258]
   [-0.05578014 -0.05579071 -0.269399   ... -0.34877306 -0.3509982
    -0.3509982 ]
   ...
   [-0.05853856 -0.05855021 -0.34877306 ... -0.49445678 -0.49894098
    -0.49894098]
   [-0.05860092 -0.05861258 -0.3509982  ... -0.49894098 -0.50350726
    -0.50350726]
   [-0.05860092 -0.05861258 -0.3509982  ... -0.49894098 -0.50350726
    -0.50350726]]

  [[-0.03071052 -0.03071372 -0.05450609 ... -0.05713698 -0.05719638
    -0.05719638]
   [-0.03071372 -0.03071692 -0.05451618 ... -0.05714807 -0.05720749
    -0.05720749]
   [-0.05450609 -0.05451618 -0.24207144 ... -0.30429919 -0.30599165
    -0.30599165]
   ...
   [-0.05713698 -0.05714807 -0.30429919 ... -0.40958981 -0.41266203
    -0.41266203]
   [-0.05719638 -0.05720749 -0.30599165 ... -0.41266203 -0.41578068
    -0.41578068]
   [-0.05719638 -0.05720749 -0.30599165 ... -0.41266203 -0.41578068
    -0.41578068]]

  ...

  [[-0.02860108 -0.02860386 -0.04819705 ... -0.05024271 -0.05028864
    -0.05028864]
   [-0.02860386 -0.02860663 -0.04820494 ... -0.05025129 -0.05029723
    -0.05029723]
   [-0.04819705 -0.04820494 -0.15307853 ... -0.17581421 -0.17637786
    -0.17637786]
   ...
   [-0.05024271 -0.05025129 -0.17581421 ... -0.20648146 -0.20725932
    -0.20725932]
   [-0.05028864 -0.05029723 -0.17637786 ... -0.20725932 -0.20804307
    -0.20804307]
   [-0.05028864 -0.05029723 -0.17637786 ... -0.20725932 -0.20804307
    -0.20804307]]

  [[-0.02860108 -0.02860386 -0.04819705 ... -0.05024271 -0.05028864
    -0.05028864]
   [-0.02860386 -0.02860663 -0.04820494 ... -0.05025129 -0.05029723
    -0.05029723]
   [-0.04819705 -0.04820494 -0.15307853 ... -0.17581421 -0.17637786
    -0.17637786]
   ...
   [-0.05024271 -0.05025129 -0.17581421 ... -0.20648146 -0.20725932
    -0.20725932]
   [-0.05028864 -0.05029723 -0.17637786 ... -0.20725932 -0.20804307
    -0.20804307]
   [-0.05028864 -0.05029723 -0.17637786 ... -0.20725932 -0.20804307
    -0.20804307]]

  [[-0.02836821 -0.02837094 -0.04753945 ... -0.04952851 -0.04957314
    -0.04957314]
   [-0.02837094 -0.02837368 -0.04754712 ... -0.04953684 -0.04958149
    -0.04958149]
   [-0.04753945 -0.04754712 -0.14663614 ... -0.16736882 -0.16787953
    -0.16787953]
   ...
   [-0.04952851 -0.04953684 -0.16736882 ... -0.19492964 -0.19562275
    -0.19562275]
   [-0.04957314 -0.04958149 -0.16787953 ... -0.19562275 -0.19632082
    -0.19632082]
   [-0.04957314 -0.04958149 -0.16787953 ... -0.19562275 -0.19632082
    -0.19632082]]]


 ...


 [[[-0.02894802 -0.02895087 -0.04919054 ... -0.05132327 -0.05137119
    -0.05137119]
   [-0.02895087 -0.02895372 -0.04919876 ... -0.05133222 -0.05138016
    -0.05138016]
   [-0.04919054 -0.04919876 -0.16357111 ... -0.18979737 -0.19045441
    -0.19045441]
   ...
   [-0.05132327 -0.05133222 -0.18979737 ... -0.22603956 -0.2269721
    -0.2269721 ]
   [-0.05137119 -0.05138016 -0.19045441 ... -0.2269721  -0.22791236
    -0.22791236]
   [-0.05137119 -0.05138016 -0.19045441 ... -0.2269721  -0.22791236
    -0.22791236]]

  [[-0.02894802 -0.02895087 -0.04919054 ... -0.05132327 -0.05137119
    -0.05137119]
   [-0.02895087 -0.02895372 -0.04919876 ... -0.05133222 -0.05138016
    -0.05138016]
   [-0.04919054 -0.04919876 -0.16357111 ... -0.18979737 -0.19045441
    -0.19045441]
   ...
   [-0.05132327 -0.05133222 -0.18979737 ... -0.22603956 -0.2269721
    -0.2269721 ]
   [-0.05137119 -0.05138016 -0.19045441 ... -0.2269721  -0.22791236
    -0.22791236]
   [-0.05137119 -0.05138016 -0.19045441 ... -0.2269721  -0.22791236
    -0.22791236]]

  [[-0.02860108 -0.02860386 -0.04819705 ... -0.05024271 -0.05028864
    -0.05028864]
   [-0.02860386 -0.02860663 -0.04820494 ... -0.05025129 -0.05029723
    -0.05029723]
   [-0.04819705 -0.04820494 -0.15307853 ... -0.17581421 -0.17637786
    -0.17637786]
   ...
   [-0.05024271 -0.05025129 -0.17581421 ... -0.20648146 -0.20725932
    -0.20725932]
   [-0.05028864 -0.05029723 -0.17637786 ... -0.20725932 -0.20804307
    -0.20804307]
   [-0.05028864 -0.05029723 -0.17637786 ... -0.20725932 -0.20804307
    -0.20804307]]

  ...

  [[-0.0267628  -0.02676523 -0.04319703 ... -0.04483306 -0.04486963
    -0.04486963]
   [-0.02676523 -0.02676766 -0.04320337 ... -0.04483989 -0.04487647
    -0.04487647]
   [-0.04319703 -0.04320337 -0.11192972 ... -0.12361848 -0.12389687
    -0.12389687]
   ...
   [-0.04483306 -0.04483989 -0.12361848 ... -0.13803322 -0.13838041
    -0.13838041]
   [-0.04486963 -0.04487647 -0.12389687 ... -0.13838041 -0.13872935
    -0.13872935]
   [-0.04486963 -0.04487647 -0.12389687 ... -0.13838041 -0.13872935
    -0.13872935]]

  [[-0.0267628  -0.02676523 -0.04319703 ... -0.04483306 -0.04486963
    -0.04486963]
   [-0.02676523 -0.02676766 -0.04320337 ... -0.04483989 -0.04487647
    -0.04487647]
   [-0.04319703 -0.04320337 -0.11192972 ... -0.12361848 -0.12389687
    -0.12389687]
   ...
   [-0.04483306 -0.04483989 -0.12361848 ... -0.13803322 -0.13838041
    -0.13838041]
   [-0.04486963 -0.04487647 -0.12389687 ... -0.13838041 -0.13872935
    -0.13872935]
   [-0.04486963 -0.04487647 -0.12389687 ... -0.13838041 -0.13872935
    -0.13872935]]

  [[-0.0265588  -0.02656119 -0.04266804 ... -0.04426351 -0.04429915
    -0.04429915]
   [-0.02656119 -0.02656359 -0.04267422 ... -0.04427016 -0.04430582
    -0.04430582]
   [-0.04266804 -0.04267422 -0.10844594 ... -0.11938286 -0.11964248
    -0.11964248]
   ...
   [-0.04426351 -0.04427016 -0.11938286 ... -0.13277322 -0.13309443
    -0.13309443]
   [-0.04429915 -0.04430582 -0.11964248 ... -0.13309443 -0.13341719
    -0.13341719]
   [-0.04429915 -0.04430582 -0.11964248 ... -0.13309443 -0.13341719
    -0.13341719]]]


 [[[-0.02894802 -0.02895087 -0.04919054 ... -0.05132327 -0.05137119
    -0.05137119]
   [-0.02895087 -0.02895372 -0.04919876 ... -0.05133222 -0.05138016
    -0.05138016]
   [-0.04919054 -0.04919876 -0.16357111 ... -0.18979737 -0.19045441
    -0.19045441]
   ...
   [-0.05132327 -0.05133222 -0.18979737 ... -0.22603956 -0.2269721
    -0.2269721 ]
   [-0.05137119 -0.05138016 -0.19045441 ... -0.2269721  -0.22791236
    -0.22791236]
   [-0.05137119 -0.05138016 -0.19045441 ... -0.2269721  -0.22791236
    -0.22791236]]

  [[-0.02894802 -0.02895087 -0.04919054 ... -0.05132327 -0.05137119
    -0.05137119]
   [-0.02895087 -0.02895372 -0.04919876 ... -0.05133222 -0.05138016
    -0.05138016]
   [-0.04919054 -0.04919876 -0.16357111 ... -0.18979737 -0.19045441
    -0.19045441]
   ...
   [-0.05132327 -0.05133222 -0.18979737 ... -0.22603956 -0.2269721
    -0.2269721 ]
   [-0.05137119 -0.05138016 -0.19045441 ... -0.2269721  -0.22791236
    -0.22791236]
   [-0.05137119 -0.05138016 -0.19045441 ... -0.2269721  -0.22791236
    -0.22791236]]

  [[-0.02860108 -0.02860386 -0.04819705 ... -0.05024271 -0.05028864
    -0.05028864]
   [-0.02860386 -0.02860663 -0.04820494 ... -0.05025129 -0.05029723
    -0.05029723]
   [-0.04819705 -0.04820494 -0.15307853 ... -0.17581421 -0.17637786
    -0.17637786]
   ...
   [-0.05024271 -0.05025129 -0.17581421 ... -0.20648146 -0.20725932
    -0.20725932]
   [-0.05028864 -0.05029723 -0.17637786 ... -0.20725932 -0.20804307
    -0.20804307]
   [-0.05028864 -0.05029723 -0.17637786 ... -0.20725932 -0.20804307
    -0.20804307]]

  ...

  [[-0.0267628  -0.02676523 -0.04319703 ... -0.04483306 -0.04486963
    -0.04486963]
   [-0.02676523 -0.02676766 -0.04320337 ... -0.04483989 -0.04487647
    -0.04487647]
   [-0.04319703 -0.04320337 -0.11192972 ... -0.12361848 -0.12389687
    -0.12389687]
   ...
   [-0.04483306 -0.04483989 -0.12361848 ... -0.13803322 -0.13838041
    -0.13838041]
   [-0.04486963 -0.04487647 -0.12389687 ... -0.13838041 -0.13872935
    -0.13872935]
   [-0.04486963 -0.04487647 -0.12389687 ... -0.13838041 -0.13872935
    -0.13872935]]

  [[-0.0267628  -0.02676523 -0.04319703 ... -0.04483306 -0.04486963
    -0.04486963]
   [-0.02676523 -0.02676766 -0.04320337 ... -0.04483989 -0.04487647
    -0.04487647]
   [-0.04319703 -0.04320337 -0.11192972 ... -0.12361848 -0.12389687
    -0.12389687]
   ...
   [-0.04483306 -0.04483989 -0.12361848 ... -0.13803322 -0.13838041
    -0.13838041]
   [-0.04486963 -0.04487647 -0.12389687 ... -0.13838041 -0.13872935
    -0.13872935]
   [-0.04486963 -0.04487647 -0.12389687 ... -0.13838041 -0.13872935
    -0.13872935]]

  [[-0.0265588  -0.02656119 -0.04266804 ... -0.04426351 -0.04429915
    -0.04429915]
   [-0.02656119 -0.02656359 -0.04267422 ... -0.04427016 -0.04430582
    -0.04430582]
   [-0.04266804 -0.04267422 -0.10844594 ... -0.11938286 -0.11964248
    -0.11964248]
   ...
   [-0.04426351 -0.04427016 -0.11938286 ... -0.13277322 -0.13309443
    -0.13309443]
   [-0.04429915 -0.04430582 -0.11964248 ... -0.13309443 -0.13341719
    -0.13341719]
   [-0.04429915 -0.04430582 -0.11964248 ... -0.13309443 -0.13341719
    -0.13341719]]]


 [[[-0.0287095  -0.0287123  -0.04850574 ... -0.05057825 -0.05062479
    -0.05062479]
   [-0.0287123  -0.0287151  -0.04851373 ... -0.05058694 -0.0506335
    -0.0506335 ]
   [-0.04850574 -0.04851373 -0.15623644 ... -0.17999263 -0.18058343
    -0.18058343]
   ...
   [-0.05057825 -0.05058694 -0.17999263 ... -0.21226868 -0.21309084
    -0.21309084]
   [-0.05062479 -0.0506335  -0.18058343 ... -0.21309084 -0.2139194
    -0.2139194 ]
   [-0.05062479 -0.0506335  -0.18058343 ... -0.21309084 -0.2139194
    -0.2139194 ]]

  [[-0.0287095  -0.0287123  -0.04850574 ... -0.05057825 -0.05062479
    -0.05062479]
   [-0.0287123  -0.0287151  -0.04851373 ... -0.05058694 -0.0506335
    -0.0506335 ]
   [-0.04850574 -0.04851373 -0.15623644 ... -0.17999263 -0.18058343
    -0.18058343]
   ...
   [-0.05057825 -0.05058694 -0.17999263 ... -0.21226868 -0.21309084
    -0.21309084]
   [-0.05062479 -0.0506335  -0.18058343 ... -0.21309084 -0.2139194
    -0.2139194 ]
   [-0.05062479 -0.0506335  -0.18058343 ... -0.21309084 -0.2139194
    -0.2139194 ]]

  [[-0.02836821 -0.02837094 -0.04753945 ... -0.04952851 -0.04957314
    -0.04957314]
   [-0.02837094 -0.02837368 -0.04754712 ... -0.04953684 -0.04958149
    -0.04958149]
   [-0.04753945 -0.04754712 -0.14663614 ... -0.16736882 -0.16787953
    -0.16787953]
   ...
   [-0.04952851 -0.04953684 -0.16736882 ... -0.19492964 -0.19562275
    -0.19562275]
   [-0.04957314 -0.04958149 -0.16787953 ... -0.19562275 -0.19632082
    -0.19632082]
   [-0.04957314 -0.04958149 -0.16787953 ... -0.19562275 -0.19632082
    -0.19632082]]

  ...

  [[-0.0265588  -0.02656119 -0.04266804 ... -0.04426351 -0.04429915
    -0.04429915]
   [-0.02656119 -0.02656359 -0.04267422 ... -0.04427016 -0.04430582
    -0.04430582]
   [-0.04266804 -0.04267422 -0.10844594 ... -0.11938286 -0.11964248
    -0.11964248]
   ...
   [-0.04426351 -0.04427016 -0.11938286 ... -0.13277322 -0.13309443
    -0.13309443]
   [-0.04429915 -0.04430582 -0.11964248 ... -0.13309443 -0.13341719
    -0.13341719]
   [-0.04429915 -0.04430582 -0.11964248 ... -0.13309443 -0.13341719
    -0.13341719]]

  [[-0.0265588  -0.02656119 -0.04266804 ... -0.04426351 -0.04429915
    -0.04429915]
   [-0.02656119 -0.02656359 -0.04267422 ... -0.04427016 -0.04430582
    -0.04430582]
   [-0.04266804 -0.04267422 -0.10844594 ... -0.11938286 -0.11964248
    -0.11964248]
   ...
   [-0.04426351 -0.04427016 -0.11938286 ... -0.13277322 -0.13309443
    -0.13309443]
   [-0.04429915 -0.04430582 -0.11964248 ... -0.13309443 -0.13341719
    -0.13341719]
   [-0.04429915 -0.04430582 -0.11964248 ... -0.13309443 -0.13341719
    -0.13341719]]

  [[-0.02635788 -0.02636024 -0.04215185 ... -0.04370824 -0.04374299
    -0.04374299]
   [-0.02636024 -0.0263626  -0.04215788 ... -0.04371473 -0.04374949
    -0.04374949]
   [-0.04215185 -0.04215788 -0.10517249 ... -0.11542789 -0.11567057
    -0.11567057]
   ...
   [-0.04370824 -0.04371473 -0.11542789 ... -0.12789939 -0.12819742
    -0.12819742]
   [-0.04374299 -0.04374949 -0.11567057 ... -0.12819742 -0.12849684
    -0.12849684]
   [-0.04374299 -0.04374949 -0.11567057 ... -0.12819742 -0.12849684
    -0.12849684]]]] (21, 21, 7, 7)
hf energy: -108.95408660474689
nuclear repulsion: 23.615376270296395
(28, 28, 28, 28)
mp2aaaa/bbbbE: 0.0 0.0 0.0
initial energy: -132.56946287504326
    ==> CCSDT amplitude equations <==

     Iter              Corr. Energy                 |dE|    |dT|

there zww hi
still here
hi
mp2aaaa/bbbbE: -0.041567472671937424 -0.041567472672408956 -0.22755171530971086
        0      -0.310686660654       0.310686660654 

there zww hi
still here
hi
mp2aaaa/bbbbE: -0.0355184518986564 -0.03551845189916202 -0.23232117213674391
        1      -0.303358075935       0.007328584719 

there zww hi
still here
hi
mp2aaaa/bbbbE: -0.03506050424324859 -0.0350605042437733 -0.24046986997632797
        2      -0.310590878463       0.007232802529 

there zww hi
still here
hi
mp2aaaa/bbbbE: -0.03450337058346244 -0.03450337058398351 -0.24251125011479022
        3      -0.311517991282       0.000927112819 

there zww hi
still here
hi
mp2aaaa/bbbbE: -0.034269680892935604 -0.0342696808934532 -0.24353596918940085
        4      -0.312075330976       0.000557339694 

there zww hi
still here
hi
mp2aaaa/bbbbE: -0.03399481620635265 -0.03399481620686522 -0.24455760580802807
        5      -0.312547238221       0.000471907245 

there zww hi
still here
hi
mp2aaaa/bbbbE: -0.03400604232956093 -0.03400604233007336 -0.24450121186083587
        6      -0.312513296520       0.000033941701 

there zww hi
still here
hi
mp2aaaa/bbbbE: -0.03400382542868808 -0.03400382542920048 -0.2445000010670754
        7      -0.312507651925       0.000005644595 

there zww hi
still here
hi
mp2aaaa/bbbbE: -0.03400390013881842 -0.034003900139330794 -0.24450111679547268
        8      -0.312508917074       0.000001265149 

there zww hi
still here
hi
mp2aaaa/bbbbE: -0.03400389400933945 -0.03400389400985195 -0.2445010298218234
        9      -0.312508817841       0.000000099233 

there zww hi
still here
hi
mp2aaaa/bbbbE: -0.03400388523271241 -0.034003885233224784 -0.24450104227924768
       10      -0.312508812745       0.000000005096 

there zww hi
still here
hi
mp2aaaa/bbbbE: -0.03400388421189591 -0.03400388421240843 -0.2445010453629941
       11      -0.312508813787       0.000000001042 

there zww hi
still here
hi
mp2aaaa/bbbbE: -0.03400388436451629 -0.034003884365028776 -0.24450104513417767
       12      -0.312508813864       0.000000000076 

there zww hi
still here
hi
mp2aaaa/bbbbE: -0.0340038842452003 -0.03400388424571278 -0.2445010452764823
       13      -0.312508813767       0.000000000096 

there zww hi
still here
hi
mp2aaaa/bbbbE: -0.03400388424410781 -0.03400388424462038 -0.2445010452684572
       14      -0.312508813757       0.000000000010 

there zww hi
still here
hi
mp2aaaa/bbbbE: -0.03400388424739168 -0.03400388424790421 -0.2445010452691429
       15      -0.312508813764       0.000000000007 

there zww hi
still here
hi
mp2aaaa/bbbbE: -0.034003884247198 -0.034003884247710565 -0.24450104526921684
       16      -0.312508813764       0.000000000000 








Final, total correlated energy: -109.26659541851097
Final CCD correlation contribution: -0.312508813764083
