#INFO: **** input file is /blue/bartlett/z.windom/MOLSSI_develop/test/build_T2_interfaces/RECORDS/verify_spin_CCD/pyscfCode/N2_equil_UHF/run_pyscf.py ****
import numpy as np
import pyscf
from pyscf import ao2mo


def main():
    """ Initialize calculation details, 2e- integrals, Fock matrix, etc """

    # run pyscf for some reason
    basis = 'ccpvdz'
    mol = pyscf.M(
        atom='N 0 0 0; N 0 0 {}'.format(3.000), #2.0749193),
        #atom='Be 0 0 0'
        verbose=5,
        unit='b',
        basis=basis)



    mf = mol.UHF()
    mf.run()
    orb=mf.mo_coeff
    print(np.shape(mf.get_hcore()))
    print(np.shape(orb))
    import run_ccd as run_ccd 
 
    run_ccd.ccd_main(mf,mol,orb)


main()
#INFO: ******************** input file end ********************


System: uname_result(system='Linux', node='login2.ufhpc', release='3.10.0-1160.80.1.el7.x86_64', version='#1 SMP Sat Oct 8 18:13:21 UTC 2022', machine='x86_64', processor='x86_64')  Threads 32
Python 3.7.12 | packaged by conda-forge | (default, Oct 26 2021, 06:08:21) 
[GCC 9.4.0]
numpy 1.21.6  scipy 1.7.3
Date: Sat Jan 28 00:34:27 2023
PySCF version 2.1.1
PySCF path  /blue/bartlett/z.windom/MOLSSI_develop/T2method/new/pyscf
GIT ORIG_HEAD 41535e74b1de6eb21fc9b6a13c089d6cd55b35d7
GIT HEAD (branch master) ff882f83f5730ea5610d52cc5b88d278f9b71da7

[ENV] PYSCF_INC_DIR /home/z.windom/libxc-4.3.4
[CONFIG] conf_file /home/z.windom/.pyscf_conf.py
[INPUT] verbose = 5
[INPUT] max_memory = 4000 
[INPUT] num. atoms = 2
[INPUT] num. electrons = 14
[INPUT] charge = 0
[INPUT] spin (= nelec alpha-beta = 2S) = 0
[INPUT] symmetry False subgroup None
[INPUT] Mole.unit = b
[INPUT] Symbol           X                Y                Z      unit          X                Y                Z       unit  Magmom
[INPUT]  1 N      0.000000000000   0.000000000000   0.000000000000 AA    0.000000000000   0.000000000000   0.000000000000 Bohr   0.0
[INPUT]  2 N      0.000000000000   0.000000000000   1.587531632760 AA    0.000000000000   0.000000000000   3.000000000000 Bohr   0.0
[INPUT] ---------------- BASIS SET ---------------- 
[INPUT] l, kappa, [nprim/nctr], expnt,             c_1 c_2 ...
[INPUT] N
[INPUT] 0    0    [8    /2   ]  9046              0.0007 -0.000153
                                1357              0.005389 -0.001208
                                309.3             0.027406 -0.005992
                                87.73             0.103207 -0.024544
                                28.56             0.278723 -0.067459
                                10.21             0.44854 -0.158078
                                3.838             0.278238 -0.121831
                                0.7466            0.01544 0.549003
[INPUT] 0    0    [1    /1   ]  0.2248               1
[INPUT] 1    0    [3    /1   ]  13.55             0.039919
                                2.917             0.217169
                                0.7973            0.510319
[INPUT] 1    0    [1    /1   ]  0.2185               1
[INPUT] 2    0    [1    /1   ]  0.817                1

nuclear repulsion = 16.3333333333333
number of shells = 10
number of NR pGTOs = 52
number of NR cGTOs = 28
basis = ccpvdz
ecp = {}
CPU time:         2.25


******** <class 'pyscf.scf.uhf.UHF'> ********
method = UHF
initial guess = minao
damping factor = 0
level_shift factor = 0
DIIS = <class 'pyscf.scf.diis.CDIIS'>
diis_start_cycle = 1
diis_space = 8
SCF conv_tol = 1e-09
SCF conv_tol_grad = None
SCF max_cycles = 50
direct_scf = True
direct_scf_tol = 1e-13
chkfile to save SCF result = /blue/bartlett/z.windom/MOLSSI_develop/test/build_T2_interfaces/RECORDS/verify_spin_CCD/pyscfCode/N2_equil_UHF/tmpn5h34p1n
max_memory 4000 MB (current use 85 MB)
number electrons alpha = 7  beta = 7
Set gradient conv threshold to 3.16228e-05
E1 = -180.8870830829738  Ecoul = 56.65844487264927
init E= -107.895304876991
cond(S) = 89.73589951114617
    CPU time for initialize scf      0.54 sec, wall time      0.03 sec
  alpha nocc = 7  HOMO = -0.278450415628058  LUMO = -0.0702045175052557
  beta  nocc = 7  HOMO = -0.275900205584063  LUMO = -0.0696517776143284
  alpha mo_energy =
[-15.56602142 -15.56526312  -1.20231855  -0.77742808  -0.31959412
  -0.27845042  -0.27845042  -0.07020452  -0.07020452   0.21496162
   0.91781276   0.96937906   0.96937906   1.00425163   1.04323475
   1.04323475   1.12659396   1.43520752   1.79547147   1.79547147
   1.98941791   1.98941791   2.10451393   2.13174167   2.13174167
   2.50686722   2.50686722   3.08653504]
  beta  mo_energy =
[-15.56553766 -15.56501929  -1.19347315  -0.77659025  -0.32086424
  -0.27590021  -0.27590021  -0.06965178  -0.06965178   0.21586291
   0.91743577   0.96956623   0.96956623   1.0047323    1.04367743
   1.04367743   1.12737613   1.43571086   1.79592378   1.79592378
   1.99004557   1.99004557   2.10504317   2.13216506   2.13216506
   2.50713759   2.50713759   3.08665626]
multiplicity <S^2> = 3.651134e-06  2S+1 = 1.0000073
E1 = -178.59568657440016  Ecoul = 53.67987490643601
cycle= 1 E= -108.582478334631  delta_E= -0.687  |g|= 0.216  |ddm|=  1.1
    CPU time for cycle= 1      0.22 sec, wall time      0.01 sec
  alpha nocc = 7  HOMO = -0.506633310746823  LUMO = -0.055927139901266
  beta  nocc = 7  HOMO = -0.506769122513503  LUMO = -0.0561261925075829
  alpha mo_energy =
[-15.91452093 -15.91394386  -1.25205104  -0.94623634  -0.59081371
  -0.50663331  -0.50663331  -0.05592714  -0.05592714   0.17863397
   0.84170188   0.87356881   0.87356881   0.92360548   0.96310178
   0.96310178   1.01341023   1.35886117   1.67750097   1.67750097
   1.87209547   1.87209547   1.98375038   2.02919294   2.02919294
   2.40422625   2.40422625   2.98189715]
  beta  mo_energy =
[-15.91457902 -15.91400193  -1.25216809  -0.94633931  -0.59049482
  -0.50676912  -0.50676912  -0.05612619  -0.05612619   0.17854559
   0.84180556   0.87346945   0.87346945   0.92365015   0.96300196
   0.96300196   1.01348982   1.35885746   1.67753096   1.67753096
   1.87204842   1.87204842   1.98377565   2.0291304    2.0291304
   2.40421076   2.40421076   2.98188574]
multiplicity <S^2> = 4.2553176e-07  2S+1 = 1.0000009
E1 = -179.74408590245957  Ecoul = 54.80617883275295
cycle= 2 E= -108.604573736373  delta_E= -0.0221  |g|= 0.0486  |ddm|= 0.223
    CPU time for cycle= 2      0.21 sec, wall time      0.01 sec
  alpha nocc = 7  HOMO = -0.460538351473718  LUMO = -0.0071344605558579
  beta  nocc = 7  HOMO = -0.460603531359409  LUMO = -0.00722534779809248
  alpha mo_energy =
[-1.57866757e+01 -1.57860502e+01 -1.19340030e+00 -9.01968907e-01
 -5.46789521e-01 -4.60538351e-01 -4.60538351e-01 -7.13446056e-03
 -7.13446056e-03  2.38783400e-01  8.71643754e-01  9.15856811e-01
  9.15856811e-01  9.48622867e-01  1.00086763e+00  1.00086763e+00
  1.05947845e+00  1.39405704e+00  1.72659707e+00  1.72659707e+00
  1.91842250e+00  1.91842250e+00  2.04156010e+00  2.07532176e+00
  2.07532176e+00  2.45417593e+00  2.45417593e+00  3.03093594e+00]
  beta  mo_energy =
[-1.57867058e+01 -1.57860802e+01 -1.19346726e+00 -9.02008778e-01
 -5.46647588e-01 -4.60603531e-01 -4.60603531e-01 -7.22534780e-03
 -7.22534780e-03  2.38711856e-01  8.71704341e-01  9.15792832e-01
  9.15792832e-01  9.48659086e-01  1.00081148e+00  1.00081148e+00
  1.05950406e+00  1.39404816e+00  1.72661007e+00  1.72661007e+00
  1.91839996e+00  1.91839996e+00  2.04156454e+00  2.07529244e+00
  2.07529244e+00  2.45416919e+00  2.45416919e+00  3.03093089e+00]
multiplicity <S^2> = 1.066745e-07  2S+1 = 1.0000002
E1 = -179.51157926199045  Ecoul = 54.57216500614729
cycle= 3 E= -108.60608092251  delta_E= -0.00151  |g|= 0.0123  |ddm|= 0.0433
    CPU time for cycle= 3      0.21 sec, wall time      0.01 sec
  alpha nocc = 7  HOMO = -0.463989559319183  LUMO = -0.00954944498470446
  beta  nocc = 7  HOMO = -0.464004040406666  LUMO = -0.00956074522391376
  alpha mo_energy =
[-1.57972369e+01 -1.57966187e+01 -1.19758278e+00 -9.05027087e-01
 -5.55204418e-01 -4.63989559e-01 -4.63989559e-01 -9.54944498e-03
 -9.54944498e-03  2.36593335e-01  8.68148956e-01  9.13103846e-01
  9.13103846e-01  9.46150121e-01  9.98154980e-01  9.98154980e-01
  1.05510681e+00  1.39135842e+00  1.72258016e+00  1.72258016e+00
  1.91441787e+00  1.91441787e+00  2.03761614e+00  2.07151137e+00
  2.07151137e+00  2.45082226e+00  2.45082226e+00  3.02765884e+00]
  beta  mo_energy =
[-1.57972420e+01 -1.57966238e+01 -1.19760659e+00 -9.05026693e-01
 -5.55184005e-01 -4.64004040e-01 -4.64004040e-01 -9.56074522e-03
 -9.56074522e-03  2.36572186e-01  8.68159516e-01  9.13093591e-01
  9.13093591e-01  9.46161868e-01  9.98147069e-01  9.98147069e-01
  1.05509921e+00  1.39135286e+00  1.72258066e+00  1.72258066e+00
  1.91441372e+00  1.91441372e+00  2.03761276e+00  2.07150706e+00
  2.07150706e+00  2.45082272e+00  2.45082272e+00  3.02765916e+00]
multiplicity <S^2> = 6.8181869e-09  2S+1 = 1
E1 = -179.52421088859944  Ecoul = 54.58465200269122
cycle= 4 E= -108.606225552575  delta_E= -0.000145  |g|= 0.000635  |ddm|= 0.0184
    CPU time for cycle= 4      0.26 sec, wall time      0.01 sec
  alpha nocc = 7  HOMO = -0.463863482890463  LUMO = -0.00939080996386495
  beta  nocc = 7  HOMO = -0.463868895004979  LUMO = -0.00939556923862502
  alpha mo_energy =
[-1.57966221e+01 -1.57960040e+01 -1.19734392e+00 -9.04573670e-01
 -5.55021806e-01 -4.63863483e-01 -4.63863483e-01 -9.39080996e-03
 -9.39080996e-03  2.36757950e-01  8.68284915e-01  9.13152556e-01
  9.13152556e-01  9.46300671e-01  9.98263649e-01  9.98263649e-01
  1.05509580e+00  1.39144155e+00  1.72268849e+00  1.72268849e+00
  1.91451076e+00  1.91451076e+00  2.03776369e+00  2.07161172e+00
  2.07161172e+00  2.45096113e+00  2.45096113e+00  3.02782932e+00]
  beta  mo_energy =
[-1.57966244e+01 -1.57960062e+01 -1.19735589e+00 -9.04572882e-01
 -5.55007681e-01 -4.63868895e-01 -4.63868895e-01 -9.39556924e-03
 -9.39556924e-03  2.36749058e-01  8.68290222e-01  9.13149446e-01
  9.13149446e-01  9.46305230e-01  9.98260731e-01  9.98260731e-01
  1.05509166e+00  1.39143869e+00  1.72268936e+00  1.72268936e+00
  1.91450870e+00  1.91450870e+00  2.03776308e+00  2.07160948e+00
  2.07160948e+00  2.45096170e+00  2.45096170e+00  3.02782994e+00]
multiplicity <S^2> = 1.4602159e-09  2S+1 = 1
E1 = -179.5233381587749  Ecoul = 54.58377902713621
cycle= 5 E= -108.606225798305  delta_E= -2.46e-07  |g|= 0.0001  |ddm|= 0.000766
    CPU time for cycle= 5      0.40 sec, wall time      0.01 sec
  alpha nocc = 7  HOMO = -0.463916273792043  LUMO = -0.00944640963842369
  beta  nocc = 7  HOMO = -0.463918796729213  LUMO = -0.00944888161253039
  alpha mo_energy =
[-1.57967679e+01 -1.57961498e+01 -1.19737725e+00 -9.04611095e-01
 -5.55066544e-01 -4.63916274e-01 -4.63916274e-01 -9.44640964e-03
 -9.44640964e-03  2.36711979e-01  8.68254667e-01  9.13110462e-01
  9.13110462e-01  9.46279947e-01  9.98222658e-01  9.98222658e-01
  1.05507898e+00  1.39142521e+00  1.72264746e+00  1.72264746e+00
  1.91447152e+00  1.91447152e+00  2.03771564e+00  2.07157132e+00
  2.07157132e+00  2.45091770e+00  2.45091770e+00  3.02778336e+00]
  beta  mo_energy =
[-1.57967691e+01 -1.57961509e+01 -1.19738320e+00 -9.04610791e-01
 -5.55058537e-01 -4.63918797e-01 -4.63918797e-01 -9.44888161e-03
 -9.44888161e-03  2.36707479e-01  8.68257823e-01  9.13109014e-01
  9.13109014e-01  9.46282504e-01  9.98221215e-01  9.98221215e-01
  1.05507703e+00  1.39142375e+00  1.72264809e+00  1.72264809e+00
  1.91447044e+00  1.91447044e+00  2.03771562e+00  2.07157012e+00
  2.07157012e+00  2.45091804e+00  2.45091804e+00  3.02778379e+00]
multiplicity <S^2> = 3.7657699e-10  2S+1 = 1
E1 = -179.52351478656277  Ecoul = 54.583955647031786
cycle= 6 E= -108.606225806198  delta_E= -7.89e-09  |g|= 1.82e-05  |ddm|= 0.000138
    CPU time for cycle= 6      0.39 sec, wall time      0.01 sec
  alpha nocc = 7  HOMO = -0.463920107715824  LUMO = -0.00944827502699017
  beta  nocc = 7  HOMO = -0.463921104458576  LUMO = -0.00944927554452983
  alpha mo_energy =
[-1.57967660e+01 -1.57961479e+01 -1.19737762e+00 -9.04607449e-01
 -5.55066089e-01 -4.63920108e-01 -4.63920108e-01 -9.44827503e-03
 -9.44827503e-03  2.36713504e-01  8.68259842e-01  9.13109174e-01
  9.13109174e-01  9.46286272e-01  9.98222145e-01  9.98222145e-01
  1.05507845e+00  1.39142623e+00  1.72264763e+00  1.72264763e+00
  1.91447118e+00  1.91447118e+00  2.03771597e+00  2.07157116e+00
  2.07157116e+00  2.45091836e+00  2.45091836e+00  3.02778464e+00]
  beta  mo_energy =
[-1.57967665e+01 -1.57961483e+01 -1.19738003e+00 -9.04607225e-01
 -5.55062462e-01 -4.63921104e-01 -4.63921104e-01 -9.44927554e-03
 -9.44927554e-03  2.36711600e-01  8.68261331e-01  9.13108622e-01
  9.13108622e-01  9.46287482e-01  9.98221571e-01  9.98221571e-01
  1.05507765e+00  1.39142563e+00  1.72264793e+00  1.72264793e+00
  1.91447073e+00  1.91447073e+00  2.03771603e+00  2.07157066e+00
  2.07157066e+00  2.45091853e+00  2.45091853e+00  3.02778486e+00]
multiplicity <S^2> = 6.8176575e-11  2S+1 = 1
E1 = -179.52350265429294  Ecoul = 54.58394351445275
cycle= 7 E= -108.606225806507  delta_E= -3.09e-10  |g|= 3.71e-06  |ddm|= 2.91e-05
    CPU time for cycle= 7      0.42 sec, wall time      0.01 sec
  alpha nocc = 7  HOMO = -0.46392051916901  LUMO = -0.00944883441397565
  beta  nocc = 7  HOMO = -0.463921055521407  LUMO = -0.00944936688483487
  alpha mo_energy =
[-1.57967668e+01 -1.57961486e+01 -1.19737848e+00 -9.04607402e-01
 -5.55065158e-01 -4.63920519e-01 -4.63920519e-01 -9.44883441e-03
 -9.44883441e-03  2.36712548e-01  8.68259873e-01  9.13108519e-01
  9.13108519e-01  9.46286131e-01  9.98221635e-01  9.98221635e-01
  1.05507773e+00  1.39142567e+00  1.72264724e+00  1.72264724e+00
  1.91447066e+00  1.91447066e+00  2.03771552e+00  2.07157061e+00
  2.07157061e+00  2.45091795e+00  2.45091795e+00  3.02778429e+00]
  beta  mo_energy =
[-1.57967670e+01 -1.57961488e+01 -1.19737978e+00 -9.04607230e-01
 -5.55063119e-01 -4.63921056e-01 -4.63921056e-01 -9.44936688e-03
 -9.44936688e-03  2.36711505e-01  8.68260717e-01  9.13108230e-01
  9.13108230e-01  9.46286820e-01  9.98221329e-01  9.98221329e-01
  1.05507729e+00  1.39142534e+00  1.72264741e+00  1.72264741e+00
  1.91447042e+00  1.91447042e+00  2.03771556e+00  2.07157034e+00
  2.07157034e+00  2.45091805e+00  2.45091805e+00  3.02778442e+00]
multiplicity <S^2> = 2.0683899e-11  2S+1 = 1
E1 = -179.52350386612113  Ecoul = 54.58394472626645
Extra cycle  E= -108.606225806521  delta_E= -1.45e-11  |g|= 1.96e-06  |ddm|= 4.04e-06
    CPU time for scf_cycle      3.03 sec, wall time      0.12 sec
    CPU time for SCF      3.04 sec, wall time      0.12 sec
converged SCF energy = -108.606225806521  <S^2> = 2.0683899e-11  2S+1 = 1
(28, 28)
(2, 28, 28)
mo energy: (28,)
total 2e- integral energy: 54.5839447262709
(28, 28, 28, 28)
final rhf/uhf energy: -108.60622580652146
slice(None, 7, None) slice(7, None, None)
eabij_aa: [[[[-0.03167099 -0.03167161 -0.0589093  ... -0.06122599 -0.06156957
    -0.06156957]
   [-0.03167161 -0.03167223 -0.05891145 ... -0.0612283  -0.06157191
    -0.06157191]
   [-0.0589093  -0.05891145 -0.42090035 ... -0.57685231 -0.60886458
    -0.60886458]
   ...
   [-0.06122599 -0.0612283  -0.57685231 ... -0.91639487 -0.999912
    -0.999912  ]
   [-0.06156957 -0.06157191 -0.60886458 ... -0.999912   -1.10017855
    -1.10017855]
   [-0.06156957 -0.06157191 -0.60886458 ... -0.999912   -1.10017855
    -1.10017855]]

  [[-0.03167099 -0.03167161 -0.0589093  ... -0.06122599 -0.06156957
    -0.06156957]
   [-0.03167161 -0.03167223 -0.05891145 ... -0.0612283  -0.06157191
    -0.06157191]
   [-0.0589093  -0.05891145 -0.42090035 ... -0.57685231 -0.60886458
    -0.60886458]
   ...
   [-0.06122599 -0.0612283  -0.57685231 ... -0.91639487 -0.999912
    -0.999912  ]
   [-0.06156957 -0.06157191 -0.60886458 ... -0.999912   -1.10017855
    -1.10017855]
   [-0.06156957 -0.06157191 -0.60886458 ... -0.999912   -1.10017855
    -1.10017855]]

  [[-0.03142599 -0.0314266  -0.05806726 ... -0.06031692 -0.06065035
    -0.06065035]
   [-0.0314266  -0.03142721 -0.05806934 ... -0.06031917 -0.06065262
    -0.06065262]
   [-0.05806726 -0.05806934 -0.38138525 ... -0.50512516 -0.5295032
    -0.5295032 ]
   ...
   [-0.06031692 -0.06031917 -0.50512516 ... -0.74772279 -0.80240761
    -0.80240761]
   [-0.06065035 -0.06065262 -0.5295032  ... -0.80240761 -0.86572235
    -0.86572235]
   [-0.06065035 -0.06065262 -0.5295032  ... -0.80240761 -0.86572235
    -0.86572235]]

  ...

  [[-0.02938152 -0.02938205 -0.05145194 ... -0.05321045 -0.05346977
    -0.05346977]
   [-0.02938205 -0.02938258 -0.05145357 ... -0.0532122  -0.05347154
    -0.05347154]
   [-0.05145194 -0.05145357 -0.2067728  ... -0.23844082 -0.24373788
    -0.24373788]
   ...
   [-0.05321045 -0.0532122  -0.23844082 ... -0.28156328 -0.28897936
    -0.28897936]
   [-0.05346977 -0.05347154 -0.24373788 ... -0.28897936 -0.29679666
    -0.29679666]
   [-0.05346977 -0.05347154 -0.24373788 ... -0.28897936 -0.29679666
    -0.29679666]]

  [[-0.02938152 -0.02938205 -0.05145194 ... -0.05321045 -0.05346977
    -0.05346977]
   [-0.02938205 -0.02938258 -0.05145357 ... -0.0532122  -0.05347154
    -0.05347154]
   [-0.05145194 -0.05145357 -0.2067728  ... -0.23844082 -0.24373788
    -0.24373788]
   ...
   [-0.05321045 -0.0532122  -0.23844082 ... -0.28156328 -0.28897936
    -0.28897936]
   [-0.05346977 -0.05347154 -0.24373788 ... -0.28897936 -0.29679666
    -0.29679666]
   [-0.05346977 -0.05347154 -0.24373788 ... -0.28897936 -0.29679666
    -0.29679666]]

  [[-0.02889182 -0.02889234 -0.04996882 ... -0.05162578 -0.05186985
    -0.05186985]
   [-0.02889234 -0.02889286 -0.04997036 ... -0.05162743 -0.05187151
    -0.05187151]
   [-0.04996882 -0.04997036 -0.18473729 ... -0.20960937 -0.2136919
    -0.2136919 ]
   ...
   [-0.05162578 -0.05162743 -0.20960937 ... -0.24222073 -0.24768899
    -0.24768899]
   [-0.05186985 -0.05187151 -0.2136919  ... -0.24768899 -0.25340985
    -0.25340985]
   [-0.05186985 -0.05187151 -0.2136919  ... -0.24768899 -0.25340985
    -0.25340985]]]


 [[[-0.03167099 -0.03167161 -0.0589093  ... -0.06122599 -0.06156957
    -0.06156957]
   [-0.03167161 -0.03167223 -0.05891145 ... -0.0612283  -0.06157191
    -0.06157191]
   [-0.0589093  -0.05891145 -0.42090035 ... -0.57685231 -0.60886458
    -0.60886458]
   ...
   [-0.06122599 -0.0612283  -0.57685231 ... -0.91639487 -0.999912
    -0.999912  ]
   [-0.06156957 -0.06157191 -0.60886458 ... -0.999912   -1.10017855
    -1.10017855]
   [-0.06156957 -0.06157191 -0.60886458 ... -0.999912   -1.10017855
    -1.10017855]]

  [[-0.03167099 -0.03167161 -0.0589093  ... -0.06122599 -0.06156957
    -0.06156957]
   [-0.03167161 -0.03167223 -0.05891145 ... -0.0612283  -0.06157191
    -0.06157191]
   [-0.0589093  -0.05891145 -0.42090035 ... -0.57685231 -0.60886458
    -0.60886458]
   ...
   [-0.06122599 -0.0612283  -0.57685231 ... -0.91639487 -0.999912
    -0.999912  ]
   [-0.06156957 -0.06157191 -0.60886458 ... -0.999912   -1.10017855
    -1.10017855]
   [-0.06156957 -0.06157191 -0.60886458 ... -0.999912   -1.10017855
    -1.10017855]]

  [[-0.03142599 -0.0314266  -0.05806726 ... -0.06031692 -0.06065035
    -0.06065035]
   [-0.0314266  -0.03142721 -0.05806934 ... -0.06031917 -0.06065262
    -0.06065262]
   [-0.05806726 -0.05806934 -0.38138525 ... -0.50512516 -0.5295032
    -0.5295032 ]
   ...
   [-0.06031692 -0.06031917 -0.50512516 ... -0.74772279 -0.80240761
    -0.80240761]
   [-0.06065035 -0.06065262 -0.5295032  ... -0.80240761 -0.86572235
    -0.86572235]
   [-0.06065035 -0.06065262 -0.5295032  ... -0.80240761 -0.86572235
    -0.86572235]]

  ...

  [[-0.02938152 -0.02938205 -0.05145194 ... -0.05321045 -0.05346977
    -0.05346977]
   [-0.02938205 -0.02938258 -0.05145357 ... -0.0532122  -0.05347154
    -0.05347154]
   [-0.05145194 -0.05145357 -0.2067728  ... -0.23844082 -0.24373788
    -0.24373788]
   ...
   [-0.05321045 -0.0532122  -0.23844082 ... -0.28156328 -0.28897936
    -0.28897936]
   [-0.05346977 -0.05347154 -0.24373788 ... -0.28897936 -0.29679666
    -0.29679666]
   [-0.05346977 -0.05347154 -0.24373788 ... -0.28897936 -0.29679666
    -0.29679666]]

  [[-0.02938152 -0.02938205 -0.05145194 ... -0.05321045 -0.05346977
    -0.05346977]
   [-0.02938205 -0.02938258 -0.05145357 ... -0.0532122  -0.05347154
    -0.05347154]
   [-0.05145194 -0.05145357 -0.2067728  ... -0.23844082 -0.24373788
    -0.24373788]
   ...
   [-0.05321045 -0.0532122  -0.23844082 ... -0.28156328 -0.28897936
    -0.28897936]
   [-0.05346977 -0.05347154 -0.24373788 ... -0.28897936 -0.29679666
    -0.29679666]
   [-0.05346977 -0.05347154 -0.24373788 ... -0.28897936 -0.29679666
    -0.29679666]]

  [[-0.02889182 -0.02889234 -0.04996882 ... -0.05162578 -0.05186985
    -0.05186985]
   [-0.02889234 -0.02889286 -0.04997036 ... -0.05162743 -0.05187151
    -0.05187151]
   [-0.04996882 -0.04997036 -0.18473729 ... -0.20960937 -0.2136919
    -0.2136919 ]
   ...
   [-0.05162578 -0.05162743 -0.20960937 ... -0.24222073 -0.24768899
    -0.24768899]
   [-0.05186985 -0.05187151 -0.2136919  ... -0.24768899 -0.25340985
    -0.25340985]
   [-0.05186985 -0.05187151 -0.2136919  ... -0.24768899 -0.25340985
    -0.25340985]]]


 [[[-0.03142599 -0.0314266  -0.05806726 ... -0.06031692 -0.06065035
    -0.06065035]
   [-0.0314266  -0.03142721 -0.05806934 ... -0.06031917 -0.06065262
    -0.06065262]
   [-0.05806726 -0.05806934 -0.38138525 ... -0.50512516 -0.5295032
    -0.5295032 ]
   ...
   [-0.06031692 -0.06031917 -0.50512516 ... -0.74772279 -0.80240761
    -0.80240761]
   [-0.06065035 -0.06065262 -0.5295032  ... -0.80240761 -0.86572235
    -0.86572235]
   [-0.06065035 -0.06065262 -0.5295032  ... -0.80240761 -0.86572235
    -0.86572235]]

  [[-0.03142599 -0.0314266  -0.05806726 ... -0.06031692 -0.06065035
    -0.06065035]
   [-0.0314266  -0.03142721 -0.05806934 ... -0.06031917 -0.06065262
    -0.06065262]
   [-0.05806726 -0.05806934 -0.38138525 ... -0.50512516 -0.5295032
    -0.5295032 ]
   ...
   [-0.06031692 -0.06031917 -0.50512516 ... -0.74772279 -0.80240761
    -0.80240761]
   [-0.06065035 -0.06065262 -0.5295032  ... -0.80240761 -0.86572235
    -0.86572235]
   [-0.06065035 -0.06065262 -0.5295032  ... -0.80240761 -0.86572235
    -0.86572235]]

  [[-0.03118475 -0.03118535 -0.05724895 ... -0.05943446 -0.05975817
    -0.05975817]
   [-0.03118535 -0.03118595 -0.05725097 ... -0.05943664 -0.05976038
    -0.05976038]
   [-0.05724895 -0.05725097 -0.3486529  ... -0.44926279 -0.46844461
    -0.46844461]
   ...
   [-0.05943446 -0.05943664 -0.44926279 ... -0.63149038 -0.67005681
    -0.67005681]
   [-0.05975817 -0.05976038 -0.46844461 ... -0.67005681 -0.71364031
    -0.71364031]
   [-0.05975817 -0.05976038 -0.46844461 ... -0.67005681 -0.71364031
    -0.71364031]]

  ...

  [[-0.02917054 -0.02917106 -0.05080842 ... -0.05252249 -0.05277513
    -0.05277513]
   [-0.02917106 -0.02917159 -0.05081002 ... -0.0525242  -0.05277686
    -0.05277686]
   [-0.05080842 -0.05081002 -0.19675792 ... -0.22522146 -0.22994164
    -0.22994164]
   ...
   [-0.05252249 -0.0525242  -0.22522146 ... -0.26331305 -0.26978785
    -0.26978785]
   [-0.05277513 -0.05277686 -0.22994164 ... -0.26978785 -0.27658909
    -0.27658909]
   [-0.05277513 -0.05277686 -0.22994164 ... -0.26978785 -0.27658909
    -0.27658909]]

  [[-0.02917054 -0.02917106 -0.05080842 ... -0.05252249 -0.05277513
    -0.05277513]
   [-0.02917106 -0.02917159 -0.05081002 ... -0.0525242  -0.05277686
    -0.05277686]
   [-0.05080842 -0.05081002 -0.19675792 ... -0.22522146 -0.22994164
    -0.22994164]
   ...
   [-0.05252249 -0.0525242  -0.22522146 ... -0.26331305 -0.26978785
    -0.26978785]
   [-0.05277513 -0.05277686 -0.22994164 ... -0.26978785 -0.27658909
    -0.27658909]
   [-0.05277513 -0.05277686 -0.22994164 ... -0.26978785 -0.27658909
    -0.27658909]]

  [[-0.02868779 -0.0286883  -0.04936165 ... -0.05097794 -0.05121591
    -0.05121591]
   [-0.0286883  -0.02868881 -0.04936316 ... -0.05097954 -0.05121753
    -0.05121753]
   [-0.04936165 -0.04936316 -0.17670174 ... -0.19932467 -0.20301288
    -0.20301288]
   ...
   [-0.05097794 -0.05097954 -0.19932467 ... -0.22859091 -0.2334549
    -0.2334549 ]
   [-0.05121591 -0.05121753 -0.20301288 ... -0.2334549  -0.23853039
    -0.23853039]
   [-0.05121591 -0.05121753 -0.20301288 ... -0.2334549  -0.23853039
    -0.23853039]]]


 ...


 [[[-0.02938152 -0.02938205 -0.05145194 ... -0.05321045 -0.05346977
    -0.05346977]
   [-0.02938205 -0.02938258 -0.05145357 ... -0.0532122  -0.05347154
    -0.05347154]
   [-0.05145194 -0.05145357 -0.2067728  ... -0.23844082 -0.24373788
    -0.24373788]
   ...
   [-0.05321045 -0.0532122  -0.23844082 ... -0.28156328 -0.28897936
    -0.28897936]
   [-0.05346977 -0.05347154 -0.24373788 ... -0.28897936 -0.29679666
    -0.29679666]
   [-0.05346977 -0.05347154 -0.24373788 ... -0.28897936 -0.29679666
    -0.29679666]]

  [[-0.02938152 -0.02938205 -0.05145194 ... -0.05321045 -0.05346977
    -0.05346977]
   [-0.02938205 -0.02938258 -0.05145357 ... -0.0532122  -0.05347154
    -0.05347154]
   [-0.05145194 -0.05145357 -0.2067728  ... -0.23844082 -0.24373788
    -0.24373788]
   ...
   [-0.05321045 -0.0532122  -0.23844082 ... -0.28156328 -0.28897936
    -0.28897936]
   [-0.05346977 -0.05347154 -0.24373788 ... -0.28897936 -0.29679666
    -0.29679666]
   [-0.05346977 -0.05347154 -0.24373788 ... -0.28897936 -0.29679666
    -0.29679666]]

  [[-0.02917054 -0.02917106 -0.05080842 ... -0.05252249 -0.05277513
    -0.05277513]
   [-0.02917106 -0.02917159 -0.05081002 ... -0.0525242  -0.05277686
    -0.05277686]
   [-0.05080842 -0.05081002 -0.19675792 ... -0.22522146 -0.22994164
    -0.22994164]
   ...
   [-0.05252249 -0.0525242  -0.22522146 ... -0.26331305 -0.26978785
    -0.26978785]
   [-0.05277513 -0.05277686 -0.22994164 ... -0.26978785 -0.27658909
    -0.27658909]
   [-0.05277513 -0.05277686 -0.22994164 ... -0.26978785 -0.27658909
    -0.27658909]]

  ...

  [[-0.02740074 -0.0274012  -0.04567048 ... -0.0470507  -0.04725334
    -0.04725334]
   [-0.0274012  -0.02740166 -0.04567177 ... -0.04705207 -0.04725472
    -0.04725472]
   [-0.04567048 -0.04567177 -0.13705027 ... -0.15027923 -0.15236621
    -0.15236621]
   ...
   [-0.0470507  -0.04705207 -0.15027923 ... -0.16633493 -0.16889548
    -0.16889548]
   [-0.04725334 -0.04725472 -0.15236621 ... -0.16889548 -0.17153609
    -0.17153609]
   [-0.04725334 -0.04725472 -0.15236621 ... -0.16889548 -0.17153609
    -0.17153609]]

  [[-0.02740074 -0.0274012  -0.04567048 ... -0.0470507  -0.04725334
    -0.04725334]
   [-0.0274012  -0.02740166 -0.04567177 ... -0.04705207 -0.04725472
    -0.04725472]
   [-0.04567048 -0.04567177 -0.13705027 ... -0.15027923 -0.15236621
    -0.15236621]
   ...
   [-0.0470507  -0.04705207 -0.15027923 ... -0.16633493 -0.16889548
    -0.16889548]
   [-0.04725334 -0.04725472 -0.15236621 ... -0.16889548 -0.17153609
    -0.17153609]
   [-0.04725334 -0.04725472 -0.15236621 ... -0.16889548 -0.17153609
    -0.17153609]]

  [[-0.02697436 -0.02697481 -0.04449814 ... -0.0458074  -0.04599945
    -0.04599945]
   [-0.02697481 -0.02697526 -0.04449937 ... -0.0458087  -0.04600076
    -0.04600076]
   [-0.04449814 -0.04449937 -0.12700898 ... -0.13829067 -0.140056
    -0.140056  ]
   ...
   [-0.0458074  -0.0458087  -0.13829067 ... -0.15177196 -0.1539009
    -0.1539009 ]
   [-0.04599945 -0.04600076 -0.140056   ... -0.1539009  -0.15609042
    -0.15609042]
   [-0.04599945 -0.04600076 -0.140056   ... -0.1539009  -0.15609042
    -0.15609042]]]


 [[[-0.02938152 -0.02938205 -0.05145194 ... -0.05321045 -0.05346977
    -0.05346977]
   [-0.02938205 -0.02938258 -0.05145357 ... -0.0532122  -0.05347154
    -0.05347154]
   [-0.05145194 -0.05145357 -0.2067728  ... -0.23844082 -0.24373788
    -0.24373788]
   ...
   [-0.05321045 -0.0532122  -0.23844082 ... -0.28156328 -0.28897936
    -0.28897936]
   [-0.05346977 -0.05347154 -0.24373788 ... -0.28897936 -0.29679666
    -0.29679666]
   [-0.05346977 -0.05347154 -0.24373788 ... -0.28897936 -0.29679666
    -0.29679666]]

  [[-0.02938152 -0.02938205 -0.05145194 ... -0.05321045 -0.05346977
    -0.05346977]
   [-0.02938205 -0.02938258 -0.05145357 ... -0.0532122  -0.05347154
    -0.05347154]
   [-0.05145194 -0.05145357 -0.2067728  ... -0.23844082 -0.24373788
    -0.24373788]
   ...
   [-0.05321045 -0.0532122  -0.23844082 ... -0.28156328 -0.28897936
    -0.28897936]
   [-0.05346977 -0.05347154 -0.24373788 ... -0.28897936 -0.29679666
    -0.29679666]
   [-0.05346977 -0.05347154 -0.24373788 ... -0.28897936 -0.29679666
    -0.29679666]]

  [[-0.02917054 -0.02917106 -0.05080842 ... -0.05252249 -0.05277513
    -0.05277513]
   [-0.02917106 -0.02917159 -0.05081002 ... -0.0525242  -0.05277686
    -0.05277686]
   [-0.05080842 -0.05081002 -0.19675792 ... -0.22522146 -0.22994164
    -0.22994164]
   ...
   [-0.05252249 -0.0525242  -0.22522146 ... -0.26331305 -0.26978785
    -0.26978785]
   [-0.05277513 -0.05277686 -0.22994164 ... -0.26978785 -0.27658909
    -0.27658909]
   [-0.05277513 -0.05277686 -0.22994164 ... -0.26978785 -0.27658909
    -0.27658909]]

  ...

  [[-0.02740074 -0.0274012  -0.04567048 ... -0.0470507  -0.04725334
    -0.04725334]
   [-0.0274012  -0.02740166 -0.04567177 ... -0.04705207 -0.04725472
    -0.04725472]
   [-0.04567048 -0.04567177 -0.13705027 ... -0.15027923 -0.15236621
    -0.15236621]
   ...
   [-0.0470507  -0.04705207 -0.15027923 ... -0.16633493 -0.16889548
    -0.16889548]
   [-0.04725334 -0.04725472 -0.15236621 ... -0.16889548 -0.17153609
    -0.17153609]
   [-0.04725334 -0.04725472 -0.15236621 ... -0.16889548 -0.17153609
    -0.17153609]]

  [[-0.02740074 -0.0274012  -0.04567048 ... -0.0470507  -0.04725334
    -0.04725334]
   [-0.0274012  -0.02740166 -0.04567177 ... -0.04705207 -0.04725472
    -0.04725472]
   [-0.04567048 -0.04567177 -0.13705027 ... -0.15027923 -0.15236621
    -0.15236621]
   ...
   [-0.0470507  -0.04705207 -0.15027923 ... -0.16633493 -0.16889548
    -0.16889548]
   [-0.04725334 -0.04725472 -0.15236621 ... -0.16889548 -0.17153609
    -0.17153609]
   [-0.04725334 -0.04725472 -0.15236621 ... -0.16889548 -0.17153609
    -0.17153609]]

  [[-0.02697436 -0.02697481 -0.04449814 ... -0.0458074  -0.04599945
    -0.04599945]
   [-0.02697481 -0.02697526 -0.04449937 ... -0.0458087  -0.04600076
    -0.04600076]
   [-0.04449814 -0.04449937 -0.12700898 ... -0.13829067 -0.140056
    -0.140056  ]
   ...
   [-0.0458074  -0.0458087  -0.13829067 ... -0.15177196 -0.1539009
    -0.1539009 ]
   [-0.04599945 -0.04600076 -0.140056   ... -0.1539009  -0.15609042
    -0.15609042]
   [-0.04599945 -0.04600076 -0.140056   ... -0.1539009  -0.15609042
    -0.15609042]]]


 [[[-0.02889182 -0.02889234 -0.04996882 ... -0.05162578 -0.05186985
    -0.05186985]
   [-0.02889234 -0.02889286 -0.04997036 ... -0.05162743 -0.05187151
    -0.05187151]
   [-0.04996882 -0.04997036 -0.18473729 ... -0.20960937 -0.2136919
    -0.2136919 ]
   ...
   [-0.05162578 -0.05162743 -0.20960937 ... -0.24222073 -0.24768899
    -0.24768899]
   [-0.05186985 -0.05187151 -0.2136919  ... -0.24768899 -0.25340985
    -0.25340985]
   [-0.05186985 -0.05187151 -0.2136919  ... -0.24768899 -0.25340985
    -0.25340985]]

  [[-0.02889182 -0.02889234 -0.04996882 ... -0.05162578 -0.05186985
    -0.05186985]
   [-0.02889234 -0.02889286 -0.04997036 ... -0.05162743 -0.05187151
    -0.05187151]
   [-0.04996882 -0.04997036 -0.18473729 ... -0.20960937 -0.2136919
    -0.2136919 ]
   ...
   [-0.05162578 -0.05162743 -0.20960937 ... -0.24222073 -0.24768899
    -0.24768899]
   [-0.05186985 -0.05187151 -0.2136919  ... -0.24768899 -0.25340985
    -0.25340985]
   [-0.05186985 -0.05187151 -0.2136919  ... -0.24768899 -0.25340985
    -0.25340985]]

  [[-0.02868779 -0.0286883  -0.04936165 ... -0.05097794 -0.05121591
    -0.05121591]
   [-0.0286883  -0.02868881 -0.04936316 ... -0.05097954 -0.05121753
    -0.05121753]
   [-0.04936165 -0.04936316 -0.17670174 ... -0.19932467 -0.20301288
    -0.20301288]
   ...
   [-0.05097794 -0.05097954 -0.19932467 ... -0.22859091 -0.2334549
    -0.2334549 ]
   [-0.05121591 -0.05121753 -0.20301288 ... -0.2334549  -0.23853039
    -0.23853039]
   [-0.05121591 -0.05121753 -0.20301288 ... -0.2334549  -0.23853039
    -0.23853039]]

  ...

  [[-0.02697436 -0.02697481 -0.04449814 ... -0.0458074  -0.04599945
    -0.04599945]
   [-0.02697481 -0.02697526 -0.04449937 ... -0.0458087  -0.04600076
    -0.04600076]
   [-0.04449814 -0.04449937 -0.12700898 ... -0.13829067 -0.140056
    -0.140056  ]
   ...
   [-0.0458074  -0.0458087  -0.13829067 ... -0.15177196 -0.1539009
    -0.1539009 ]
   [-0.04599945 -0.04600076 -0.140056   ... -0.1539009  -0.15609042
    -0.15609042]
   [-0.04599945 -0.04600076 -0.140056   ... -0.1539009  -0.15609042
    -0.15609042]]

  [[-0.02697436 -0.02697481 -0.04449814 ... -0.0458074  -0.04599945
    -0.04599945]
   [-0.02697481 -0.02697526 -0.04449937 ... -0.0458087  -0.04600076
    -0.04600076]
   [-0.04449814 -0.04449937 -0.12700898 ... -0.13829067 -0.140056
    -0.140056  ]
   ...
   [-0.0458074  -0.0458087  -0.13829067 ... -0.15177196 -0.1539009
    -0.1539009 ]
   [-0.04599945 -0.04600076 -0.140056   ... -0.1539009  -0.15609042
    -0.15609042]
   [-0.04599945 -0.04600076 -0.140056   ... -0.1539009  -0.15609042
    -0.15609042]]

  [[-0.02656106 -0.02656149 -0.04338449 ... -0.04462811 -0.04481038
    -0.04481038]
   [-0.02656149 -0.02656193 -0.04338565 ... -0.04462934 -0.04481163
    -0.04481163]
   [-0.04338449 -0.04338565 -0.11833864 ... -0.12807357 -0.12958626
    -0.12958626]
   ...
   [-0.04462811 -0.04462934 -0.12807357 ... -0.13955373 -0.14135166
    -0.14135166]
   [-0.04481038 -0.04481163 -0.12958626 ... -0.14135166 -0.14319653
    -0.14319653]
   [-0.04481038 -0.04481163 -0.12958626 ... -0.14135166 -0.14319653
    -0.14319653]]]] (21, 21, 7, 7)
hf energy: -108.60622580652135
nuclear repulsion: 16.333333333333332
(28, 28, 28, 28)
initial energy: -124.93955913985478
    ==> CCSDT amplitude equations <==

     Iter              Corr. Energy                 |dE|    |dT|

there zww hi
still here
hi
        0      -0.532277777305       0.532277777305       2.540299315086

there zww hi
still here
hi
        1      -0.326720199172       0.205557578132       1.908403152895

there zww hi
still here
hi
        2      -0.468062427000       0.141342227827       2.243239599531

there zww hi
still here
hi
        3      -0.390008958119       0.078053468881       2.029422131556

there zww hi
still here
hi
        4      -0.441352248533       0.051343290414       2.147347137674

there zww hi
still here
hi
        5      -0.424722449499       0.016629799034       2.075190692505

there zww hi
still here
hi
        6      -0.427796307866       0.003073858367       2.100112980154

there zww hi
still here
hi
        7      -0.427648357773       0.000147950093       2.106031351175

there zww hi
still here
hi
        8      -0.427671588507       0.000023230735       2.105036760183

there zww hi
still here
hi
        9      -0.427671078498       0.000000510009       2.105337911897

there zww hi
still here
hi
       10      -0.427674385443       0.000003306945       2.105469029582

there zww hi
still here
hi
       11      -0.427674158205       0.000000227238       2.105452942758

there zww hi
still here
hi
       12      -0.427674268808       0.000000110604       2.105449586174

there zww hi
still here
hi
       13      -0.427674297339       0.000000028531       2.105450790581

there zww hi
still here
hi
       14      -0.427674293486       0.000000003853       2.105451422991

there zww hi
still here
hi
       15      -0.427674295523       0.000000002037       2.105451533403

there zww hi
still here
hi
       16      -0.427674295577       0.000000000054       2.105451519285








Final, total correlated energy: -109.03390010209824
Final CCD correlation contribution: -0.4276742955768924
