#INFO: **** input file is /blue/bartlett/z.windom/MOLSSI_develop/test/build_T2_interfaces/RECORDS/verify_spin_CCD/pyscfCode/run_pyscf.py ****
import numpy as np
import pyscf
from pyscf import ao2mo


def main():
    """ Initialize calculation details, 2e- integrals, Fock matrix, etc """

    # run pyscf for some reason
    basis = '6-31G'
    mol = pyscf.M(
        atom='H 0 0 0; F 0 0 {}'.format(0.917),
        #atom='Be 0 0 0'
        verbose=5,
        basis=basis)

    mf = mol.RHF()
    mf.run()


    mf = mol.UHF()
    mf.run()
    orb=mf.mo_coeff
    print(np.shape(mf.get_hcore()))
    print(np.shape(orb))
    import run_ccd as run_ccd 
 
    run_ccd.ccd_main(mf,mol,orb)


main()
#INFO: ******************** input file end ********************


System: uname_result(system='Linux', node='login2.ufhpc', release='3.10.0-1160.80.1.el7.x86_64', version='#1 SMP Sat Oct 8 18:13:21 UTC 2022', machine='x86_64', processor='x86_64')  Threads 32
Python 3.7.12 | packaged by conda-forge | (default, Oct 26 2021, 06:08:21) 
[GCC 9.4.0]
numpy 1.21.6  scipy 1.7.3
Date: Fri Jan 27 18:30:14 2023
PySCF version 2.1.1
PySCF path  /blue/bartlett/z.windom/MOLSSI_develop/T2method/new/pyscf
GIT ORIG_HEAD 41535e74b1de6eb21fc9b6a13c089d6cd55b35d7
GIT HEAD (branch master) ff882f83f5730ea5610d52cc5b88d278f9b71da7

[ENV] PYSCF_INC_DIR /home/z.windom/libxc-4.3.4
[CONFIG] conf_file /home/z.windom/.pyscf_conf.py
[INPUT] verbose = 5
[INPUT] max_memory = 4000 
[INPUT] num. atoms = 2
[INPUT] num. electrons = 10
[INPUT] charge = 0
[INPUT] spin (= nelec alpha-beta = 2S) = 0
[INPUT] symmetry False subgroup None
[INPUT] Mole.unit = angstrom
[INPUT] Symbol           X                Y                Z      unit          X                Y                Z       unit  Magmom
[INPUT]  1 H      0.000000000000   0.000000000000   0.000000000000 AA    0.000000000000   0.000000000000   0.000000000000 Bohr   0.0
[INPUT]  2 F      0.000000000000   0.000000000000   0.917000000000 AA    0.000000000000   0.000000000000   1.732878856226 Bohr   0.0
[INPUT] ---------------- BASIS SET ---------------- 
[INPUT] l, kappa, [nprim/nctr], expnt,             c_1 c_2 ...
[INPUT] H
[INPUT] 0    0    [3    /1   ]  18.731137         0.0334946
                                2.8253937         0.23472695
                                0.6401217         0.81375733
[INPUT] 0    0    [1    /1   ]  0.1612778            1
[INPUT] F
[INPUT] 0    0    [6    /1   ]  7001.71309        0.0018196169
                                1051.36609        0.0139160796
                                239.28569         0.0684053245
                                67.3974453        0.23318576
                                21.5199573        0.471267439
                                7.4031013         0.356618546
[INPUT] 0    0    [3    /1   ]  20.8479528        -0.108506975
                                4.80830834        -0.146451658
                                1.34406986        1.12868858
[INPUT] 0    0    [1    /1   ]  0.358151393          1
[INPUT] 1    0    [3    /1   ]  20.8479528        0.0716287243
                                4.80830834        0.345912103
                                1.34406986        0.722469957
[INPUT] 1    0    [1    /1   ]  0.358151393          1

nuclear repulsion = 5.19366946377317
number of shells = 7
number of NR pGTOs = 26
number of NR cGTOs = 11
basis = 6-31G
ecp = {}
CPU time:         3.18


******** <class 'pyscf.scf.hf.RHF'> ********
method = RHF
initial guess = minao
damping factor = 0
level_shift factor = 0
DIIS = <class 'pyscf.scf.diis.CDIIS'>
diis_start_cycle = 1
diis_space = 8
SCF conv_tol = 1e-09
SCF conv_tol_grad = None
SCF max_cycles = 50
direct_scf = True
direct_scf_tol = 1e-13
chkfile to save SCF result = /blue/bartlett/z.windom/MOLSSI_develop/test/build_T2_interfaces/RECORDS/verify_spin_CCD/pyscfCode/tmpvm4ig7rg
max_memory 4000 MB (current use 85 MB)
Set gradient conv threshold to 3.16228e-05
E1 = -149.23625790406655  E_coul = 44.23657898478194
init E= -99.8060094555114
cond(S) = 25.594965630916704
    CPU time for initialize scf      0.59 sec, wall time      0.05 sec
  HOMO = -0.663592825229777  LUMO = 0.138701849393296
  mo_energy =
[-26.50028393  -1.78571844  -0.83074496  -0.66359283  -0.66359283
   0.13870185   1.10055477   1.38230825   1.38230825   1.44925557
   1.92258736]
E1 = -151.66655874412888  E_coul = 46.52130476936923
cycle= 1 E= -99.9515845109865  delta_E= -0.146  |g|=  0.4  |ddm|= 0.829
    CPU time for cycle= 1      0.16 sec, wall time      0.01 sec
  HOMO = -0.544888029396311  LUMO = 0.202250668318935
  mo_energy =
[-26.04464669  -1.51443205  -0.68308693  -0.54488803  -0.54488803
   0.20225067   1.10569819   1.5580326    1.5580326    1.66333901
   2.05283659]
E1 = -150.02277439669248  E_coul = 44.852264421855054
cycle= 2 E= -99.9768405110643  delta_E= -0.0253  |g|= 0.211  |ddm|= 0.345
    CPU time for cycle= 2      0.14 sec, wall time      0.01 sec
  HOMO = -0.633637821861143  LUMO = 0.200310694745229
  mo_energy =
[-26.29725827  -1.59704653  -0.74979985  -0.63363782  -0.63363782
   0.20031069   1.1005577    1.48726272   1.48726272   1.5916623
   1.99783679]
E1 = -150.6766435226731  E_coul = 45.49977467066385
cycle= 3 E= -99.9831993882361  delta_E= -0.00636  |g|= 0.0245  |ddm|= 0.113
    CPU time for cycle= 3      0.14 sec, wall time      0.01 sec
  HOMO = -0.630363631948827  LUMO = 0.209534799908838
  mo_energy =
[-26.27682223  -1.58950379  -0.74024652  -0.63036363  -0.63036363
   0.2095348    1.11680176   1.49009611   1.49009611   1.59294219
   2.00622533]
E1 = -150.62735350884657  E_coul = 45.45028288047214
cycle= 4 E= -99.9834011646012  delta_E= -0.000202  |g|= 0.00409  |ddm|= 0.0222
    CPU time for cycle= 4      0.14 sec, wall time      0.01 sec
  HOMO = -0.63090009284368  LUMO = 0.209693383948278
  mo_energy =
[-26.27560988  -1.58950101  -0.73889466  -0.63090009  -0.63090009
   0.20969338   1.11681027   1.48955856   1.48955856   1.59322823
   2.00616494]
E1 = -150.62182506952857  E_coul = 45.4447467462974
cycle= 5 E= -99.983408859458  delta_E= -7.69e-06  |g|= 0.000343  |ddm|= 0.0056
    CPU time for cycle= 5      0.14 sec, wall time      0.01 sec
  HOMO = -0.631019966333262  LUMO = 0.209693669848288
  mo_energy =
[-26.27570418  -1.58959908  -0.73897598  -0.63101997  -0.63101997
   0.20969367   1.11681697   1.48948011   1.48948011   1.59322233
   2.00612001]
E1 = -150.62142011540473  E_coul = 45.44434171888817
cycle= 6 E= -99.9834089327434  delta_E= -7.33e-08  |g|= 3.65e-05  |ddm|= 0.000672
    CPU time for cycle= 6      0.15 sec, wall time      0.01 sec
  HOMO = -0.631030838327287  LUMO = 0.209693132172255
  mo_energy =
[-26.27571393  -1.58960563  -0.73897393  -0.63103084  -0.63103084
   0.20969313   1.11681334   1.48947015   1.48947015   1.59320438
   2.00611389]
E1 = -150.6214401331818  E_coul = 45.444361736129025
cycle= 7 E= -99.9834089332796  delta_E= -5.36e-10  |g|= 2.84e-06  |ddm|= 6.42e-05
    CPU time for cycle= 7      0.18 sec, wall time      0.01 sec
  HOMO = -0.631030904107601  LUMO = 0.209693513300613
  mo_energy =
[-26.27571462  -1.58960642  -0.73897548  -0.6310309   -0.6310309
   0.20969351   1.11681419   1.48947036   1.48947036   1.59320428
   2.0061138 ]
E1 = -150.62143742108486  E_coul = 45.44435902402944
Extra cycle  E= -99.9834089332822  delta_E= -2.64e-12  |g|= 8.36e-07  |ddm|= 2.72e-06
    CPU time for scf_cycle      1.79 sec, wall time      0.09 sec
    CPU time for SCF      1.79 sec, wall time      0.09 sec
converged SCF energy = -99.9834089332822


******** <class 'pyscf.scf.uhf.UHF'> ********
method = UHF
initial guess = minao
damping factor = 0
level_shift factor = 0
DIIS = <class 'pyscf.scf.diis.CDIIS'>
diis_start_cycle = 1
diis_space = 8
SCF conv_tol = 1e-09
SCF conv_tol_grad = None
SCF max_cycles = 50
direct_scf = True
direct_scf_tol = 1e-13
chkfile to save SCF result = /blue/bartlett/z.windom/MOLSSI_develop/test/build_T2_interfaces/RECORDS/verify_spin_CCD/pyscfCode/tmp3f4tfvz4
max_memory 4000 MB (current use 93 MB)
number electrons alpha = 5  beta = 5
Set gradient conv threshold to 3.16228e-05
E1 = -149.14728121339962  Ecoul = 44.17649394956441
init E= -99.777117800062
cond(S) = 25.594965630916704
    CPU time for initialize scf      1.30 sec, wall time      0.05 sec
  alpha nocc = 5  HOMO = -0.67061319676637  LUMO = 0.130815843445807
  beta  nocc = 5  HOMO = -0.670061106454789  LUMO = 0.128486316275933
  alpha mo_energy =
[-26.50903715  -1.7950543   -0.83626167  -0.6706132   -0.6706132
   0.13081584   1.09062742   1.37613654   1.37613654   1.44752929
   1.91319754]
  beta  mo_energy =
[-26.50858205  -1.78706774  -0.83141951  -0.67006111  -0.67006111
   0.12848632   1.09179867   1.37630395   1.37630395   1.44563231
   1.91409008]
multiplicity <S^2> = 0.00011219113  2S+1 = 1.0002244
E1 = -151.69770734944998  Ecoul = 46.552977594512555
cycle= 1 E= -99.9510602911643  delta_E= -0.174  |g|= 0.285  |ddm|= 0.588
    CPU time for cycle= 1      0.30 sec, wall time      0.01 sec
  alpha nocc = 5  HOMO = -0.542451632081718  LUMO = 0.202583733069458
  beta  nocc = 5  HOMO = -0.542341848785997  LUMO = 0.202581522114266
  alpha mo_energy =
[-26.03848819  -1.51179497  -0.68037727  -0.54245163  -0.54245163
   0.20258373   1.10709955   1.55998237   1.55998237   1.66561663
   2.05467105]
  beta  mo_energy =
[-26.0384808   -1.51192019  -0.68203346  -0.54234185  -0.54234185
   0.20258152   1.10667777   1.560073     1.560073     1.66482862
   2.05475361]
multiplicity <S^2> = 2.3565006e-05  2S+1 = 1.0000471
E1 = -150.0107680679965  Ecoul = 44.84057209800703
cycle= 2 E= -99.9765265062163  delta_E= -0.0255  |g|= 0.153  |ddm|= 0.247
    CPU time for cycle= 2      0.33 sec, wall time      0.01 sec
  alpha nocc = 5  HOMO = -0.633037799632962  LUMO = 0.200228313918685
  beta  nocc = 5  HOMO = -0.633002341709206  LUMO = 0.200389101521945
  alpha mo_energy =
[-26.29630937  -1.59635414  -0.74883795  -0.6330378   -0.6330378
   0.20022831   1.10076768   1.48770514   1.48770514   1.59241427
   1.99823005]
  beta  mo_energy =
[-26.29634381  -1.59652816  -0.75025916  -0.63300234  -0.63300234
   0.2003891    1.10069161   1.48775065   1.48775065   1.59183433
   1.99820847]
multiplicity <S^2> = 1.0070884e-05  2S+1 = 1.0000201
E1 = -150.67608651191415  Ecoul = 45.49923270843118
cycle= 3 E= -99.9831843397098  delta_E= -0.00666  |g|= 0.0173  |ddm|= 0.0811
    CPU time for cycle= 3      0.24 sec, wall time      0.01 sec
  alpha nocc = 5  HOMO = -0.630303006308663  LUMO = 0.209551893903165
  beta  nocc = 5  HOMO = -0.630345396005302  LUMO = 0.209608518226558
  alpha mo_energy =
[-26.2767638   -1.58934376  -0.73992637  -0.63030301  -0.63030301
   0.20955189   1.1167324    1.49013893   1.49013893   1.5931445
   2.00633268]
  beta  mo_energy =
[-26.27684124  -1.58955945  -0.74058076  -0.6303454   -0.6303454
   0.20960852   1.11698185   1.49013736   1.49013736   1.59280739
   2.00621806]
multiplicity <S^2> = 2.3384943e-06  2S+1 = 1.0000047
E1 = -150.62747084290027  Ecoul = 45.45040113815021
cycle= 4 E= -99.9834002409769  delta_E= -0.000216  |g|= 0.00299  |ddm|= 0.0167
    CPU time for cycle= 4      0.16 sec, wall time      0.01 sec
  alpha nocc = 5  HOMO = -0.63087944285607  LUMO = 0.209703658312518
  beta  nocc = 5  HOMO = -0.630932046077344  LUMO = 0.209684026856622
  alpha mo_energy =
[-26.27556758  -1.58942185  -0.73874487  -0.63087944  -0.63087944
   0.20970366   1.11671208   1.48956173   1.48956173   1.59330729
   2.00620922]
  beta  mo_energy =
[-26.27563574  -1.58958605  -0.73902452  -0.63093205  -0.63093205
   0.20968403   1.11692303   1.48954109   1.48954109   1.59313123
   2.00611744]
multiplicity <S^2> = 6.3236765e-07  2S+1 = 1.0000013
E1 = -150.62178917385197  Ecoul = 45.444710965145305
cycle= 5 E= -99.9834087449335  delta_E= -8.5e-06  |g|= 0.000331  |ddm|= 0.00425
    CPU time for cycle= 5      0.17 sec, wall time      0.01 sec
  alpha nocc = 5  HOMO = -0.631004508077985  LUMO = 0.209698193865544
  beta  nocc = 5  HOMO = -0.631047255937947  LUMO = 0.20969022287897
  alpha mo_energy =
[-26.27568588  -1.58955047  -0.73889245  -0.63100451  -0.63100451
   0.20969819   1.11675344   1.48948603   1.48948603   1.59327397
   2.00614597]
  beta  mo_energy =
[-26.27573221  -1.58965879  -0.73906523  -0.63104726  -0.63104726
   0.20969022   1.11687971   1.48946617   1.48946617   1.59316587
   2.00608836]
multiplicity <S^2> = 2.3656468e-07  2S+1 = 1.0000005
E1 = -150.6214028873523  Ecoul = 45.44432453765631
cycle= 6 E= -99.9834088859228  delta_E= -1.41e-07  |g|= 0.00015  |ddm|= 0.000547
    CPU time for cycle= 6      0.25 sec, wall time      0.01 sec
  alpha nocc = 5  HOMO = -0.631032722158025  LUMO = 0.209692492213341
  beta  nocc = 5  HOMO = -0.631049087198908  LUMO = 0.209690639789368
  alpha mo_energy =
[-26.27571553  -1.58959743  -0.73895132  -0.63103272  -0.63103272
   0.20969249   1.11679791   1.48946561   1.48946561   1.59320146
   2.00611432]
  beta  mo_energy =
[-26.27572829  -1.58962464  -0.73899224  -0.63104909  -0.63104909
   0.20969064   1.11682046   1.48945591   1.48945591   1.59317713
   2.00610221]
multiplicity <S^2> = 1.1870855e-08  2S+1 = 1
E1 = -150.62145523227147  Ecoul = 45.4443768379256
cycle= 7 E= -99.9834089305727  delta_E= -4.46e-08  |g|= 3.94e-05  |ddm|= 0.000362
    CPU time for cycle= 7      0.37 sec, wall time      0.01 sec
  alpha nocc = 5  HOMO = -0.63103018805067  LUMO = 0.209694686199669
  beta  nocc = 5  HOMO = -0.631033804307378  LUMO = 0.209694973948488
  alpha mo_energy =
[-26.27571646  -1.58960709  -0.73897732  -0.63103019  -0.63103019
   0.20969469   1.11681693   1.48947137   1.48947137   1.59320385
   2.00611368]
  beta  mo_energy =
[-26.27571815  -1.58960964  -0.73897975  -0.6310338   -0.6310338
   0.20969497   1.11681602   1.48946877   1.48946877   1.59320271
   2.00611336]
multiplicity <S^2> = 3.2350123e-11  2S+1 = 1
E1 = -150.62143492344404  Ecoul = 45.44435652641042
cycle= 8 E= -99.9834089332604  delta_E= -2.69e-09  |g|= 4.87e-06  |ddm|= 0.000108
    CPU time for cycle= 8      0.27 sec, wall time      0.01 sec
  alpha nocc = 5  HOMO = -0.631030255995557  LUMO = 0.209693608931852
  beta  nocc = 5  HOMO = -0.631031495124204  LUMO = 0.209693508302541
  alpha mo_energy =
[-26.27571418  -1.58960609  -0.73897489  -0.63103026  -0.63103026
   0.20969361   1.11681433   1.48947075   1.48947075   1.59320406
   2.00611375]
  beta  mo_energy =
[-26.27571477  -1.58960692  -0.73897525  -0.6310315   -0.6310315
   0.20969351   1.11681407   1.48946984   1.48946984   1.59320379
   2.00611364]
multiplicity <S^2> = 3.1628034e-12  2S+1 = 1
E1 = -150.62143801165405  Ecoul = 45.44435961460026
cycle= 9 E= -99.9834089332806  delta_E= -2.02e-11  |g|= 1.45e-06  |ddm|= 6.96e-06
    CPU time for cycle= 9      0.30 sec, wall time      0.01 sec
  alpha nocc = 5  HOMO = -0.631030755393216  LUMO = 0.209693663924185
  beta  nocc = 5  HOMO = -0.631031393539426  LUMO = 0.209693626679231
  alpha mo_energy =
[-26.27571484  -1.58960646  -0.73897546  -0.63103076  -0.63103076
   0.20969366   1.11681442   1.48947046   1.48947046   1.59320402
   2.00611372]
  beta  mo_energy =
[-26.27571515  -1.58960691  -0.73897567  -0.63103139  -0.63103139
   0.20969363   1.11681433   1.48947      1.48947      1.59320386
   2.00611365]
multiplicity <S^2> = 8.3311136e-13  2S+1 = 1
E1 = -150.6214381043665  Ecoul = 45.444359707311385
Extra cycle  E= -99.9834089332819  delta_E= -1.32e-12  |g|= 7.09e-07  |ddm|= 1.2e-06
    CPU time for scf_cycle      3.96 sec, wall time      0.14 sec
    CPU time for SCF      3.98 sec, wall time      0.14 sec
converged SCF energy = -99.9834089332819  <S^2> = 8.3311136e-13  2S+1 = 1
(11, 11)
(2, 11, 11)
mo energy: (11,)
total 2e- integral energy: 45.4443597073122
(11, 11, 11, 11)
final rhf/uhf energy: -99.98340893328196
slice(None, 5, None) slice(5, None, None)
eabij_aa: [[[[-0.01887832 -0.03535479 -0.03645102 -0.03659501 -0.03659501]
   [-0.03535479 -0.27788583 -0.36390509 -0.37878436 -0.37878436]
   [-0.03645102 -0.36390509 -0.52705415 -0.55884856 -0.55884856]
   [-0.03659501 -0.37878436 -0.55884856 -0.5947252  -0.5947252 ]
   [-0.03659501 -0.37878436 -0.55884856 -0.5947252  -0.5947252 ]]

  [[-0.01856047 -0.03425616 -0.03528432 -0.03541923 -0.03541923]
   [-0.03425616 -0.22194006 -0.27359107 -0.28191684 -0.28191684]
   [-0.03528432 -0.27359107 -0.35657501 -0.37084914 -0.37084914]
   [-0.03541923 -0.28191684 -0.37084914 -0.38631374 -0.38631374]
   [-0.03541923 -0.28191684 -0.37084914 -0.38631374 -0.38631374]]

  [[-0.01843298 -0.03382437 -0.03482639 -0.03495781 -0.03495781]
   [-0.03382437 -0.20498621 -0.24827782 -0.25511497 -0.25511497]
   [-0.03482639 -0.24827782 -0.31475096 -0.32582095 -0.32582095]
   [-0.03495781 -0.25511497 -0.32582095 -0.33769801 -0.33769801]
   [-0.03495781 -0.25511497 -0.32582095 -0.33769801 -0.33769801]]

  [[-0.01843298 -0.03382437 -0.03482639 -0.03495781 -0.03495781]
   [-0.03382437 -0.20498621 -0.24827782 -0.25511497 -0.25511497]
   [-0.03482639 -0.24827782 -0.31475096 -0.32582095 -0.32582095]
   [-0.03495781 -0.25511497 -0.32582095 -0.33769801 -0.33769801]
   [-0.03495781 -0.25511497 -0.32582095 -0.33769801 -0.33769801]]

  [[-0.0183978  -0.0337061  -0.03470103 -0.0348315  -0.0348315 ]
   [-0.0337061  -0.20071815 -0.24204404 -0.24853767 -0.24853767]
   [-0.03470103 -0.24204404 -0.30479919 -0.3151687  -0.3151687 ]
   [-0.0348315  -0.24853767 -0.3151687  -0.32626862 -0.32626862]
   [-0.0348315  -0.24853767 -0.3151687  -0.32626862 -0.32626862]]

  [[-0.01825909 -0.03324343 -0.03421084 -0.03433765 -0.03433765]
   [-0.03324343 -0.18535611 -0.22005157 -0.22540572 -0.22540572]
   [-0.03421084 -0.22005157 -0.27072697 -0.27887674 -0.27887674]
   [-0.03433765 -0.22540572 -0.27887674 -0.2875324  -0.2875324 ]
   [-0.03433765 -0.22540572 -0.27887674 -0.2875324  -0.2875324 ]]]


 [[[-0.01856047 -0.03425616 -0.03528432 -0.03541923 -0.03541923]
   [-0.03425616 -0.22194006 -0.27359107 -0.28191684 -0.28191684]
   [-0.03528432 -0.27359107 -0.35657501 -0.37084914 -0.37084914]
   [-0.03541923 -0.28191684 -0.37084914 -0.38631374 -0.38631374]
   [-0.03541923 -0.28191684 -0.37084914 -0.38631374 -0.38631374]]

  [[-0.01825315 -0.03322375 -0.03419    -0.03431665 -0.03431665]
   [-0.03322375 -0.18474584 -0.21919198 -0.22450388 -0.22450388]
   [-0.03419    -0.21919198 -0.26942705 -0.27749758 -0.27749758]
   [-0.03431665 -0.22450388 -0.27749758 -0.28606653 -0.28606653]
   [-0.03431665 -0.22450388 -0.27749758 -0.28606653 -0.28606653]]

  [[-0.01812983 -0.03281744 -0.03375986 -0.03388334 -0.03388334]
   [-0.03281744 -0.17284597 -0.20263971 -0.20717136 -0.20717136]
   [-0.03375986 -0.20263971 -0.24484385 -0.25149064 -0.25149064]
   [-0.03388334 -0.20717136 -0.25149064 -0.25850839 -0.25850839]
   [-0.03388334 -0.20717136 -0.25149064 -0.25850839 -0.25850839]]

  [[-0.01812983 -0.03281744 -0.03375986 -0.03388334 -0.03388334]
   [-0.03281744 -0.17284597 -0.20263971 -0.20717136 -0.20717136]
   [-0.03375986 -0.20263971 -0.24484385 -0.25149064 -0.25149064]
   [-0.03388334 -0.20717136 -0.25149064 -0.25850839 -0.25850839]
   [-0.03388334 -0.20717136 -0.25149064 -0.25850839 -0.25850839]]

  [[-0.0180958  -0.0327061  -0.03364205 -0.03376466 -0.03376466]
   [-0.0327061  -0.16980145 -0.19846781 -0.20281278 -0.20281278]
   [-0.03364205 -0.19846781 -0.23877921 -0.24509656 -0.24509656]
   [-0.03376466 -0.20281278 -0.24509656 -0.25175727 -0.25175727]
   [-0.03376466 -0.20281278 -0.24509656 -0.25175727 -0.25175727]]

  [[-0.01796159 -0.0322703  -0.03318112 -0.0333004  -0.0333004 ]
   [-0.0322703  -0.15867623 -0.18343541 -0.18714097 -0.18714097]
   [-0.03318112 -0.18343541 -0.21734977 -0.22257169 -0.22257169]
   [-0.0333004  -0.18714097 -0.22257169 -0.22805071 -0.22805071]
   [-0.0333004  -0.18714097 -0.22257169 -0.22805071 -0.22805071]]]


 [[[-0.01843298 -0.03382437 -0.03482639 -0.03495781 -0.03495781]
   [-0.03382437 -0.20498621 -0.24827782 -0.25511497 -0.25511497]
   [-0.03482639 -0.24827782 -0.31475096 -0.32582095 -0.32582095]
   [-0.03495781 -0.25511497 -0.32582095 -0.33769801 -0.33769801]
   [-0.03495781 -0.25511497 -0.32582095 -0.33769801 -0.33769801]]

  [[-0.01812983 -0.03281744 -0.03375986 -0.03388334 -0.03388334]
   [-0.03281744 -0.17284597 -0.20263971 -0.20717136 -0.20717136]
   [-0.03375986 -0.20263971 -0.24484385 -0.25149064 -0.25149064]
   [-0.03388334 -0.20717136 -0.25149064 -0.25850839 -0.25850839]
   [-0.03388334 -0.20717136 -0.25149064 -0.25850839 -0.25850839]]

  [[-0.01800816 -0.03242094 -0.03334041 -0.03346083 -0.03346083]
   [-0.03242094 -0.16238633 -0.18841181 -0.19232329 -0.19232329]
   [-0.03334041 -0.18841181 -0.22437161 -0.22994071 -0.22994071]
   [-0.03346083 -0.19232329 -0.22994071 -0.23579331 -0.23579331]
   [-0.03346083 -0.19232329 -0.22994071 -0.23579331 -0.23579331]]

  [[-0.01800816 -0.03242094 -0.03334041 -0.03346083 -0.03346083]
   [-0.03242094 -0.16238633 -0.18841181 -0.19232329 -0.19232329]
   [-0.03334041 -0.18841181 -0.22437161 -0.22994071 -0.22994071]
   [-0.03346083 -0.19232329 -0.22994071 -0.23579331 -0.23579331]
   [-0.03346083 -0.19232329 -0.22994071 -0.23579331 -0.23579331]]

  [[-0.01797459 -0.03231227 -0.0332255  -0.03334509 -0.03334509]
   [-0.03231227 -0.15969626 -0.18479997 -0.18856142 -0.18856142]
   [-0.0332255  -0.18479997 -0.21926817 -0.22458381 -0.22458381]
   [-0.03334509 -0.18856142 -0.22458381 -0.23016358 -0.23016358]
   [-0.03334509 -0.18856142 -0.22458381 -0.23016358 -0.23016358]]

  [[-0.01784216 -0.03188683 -0.03277584 -0.03289222 -0.03289222]
   [-0.03188683 -0.14981729 -0.1716984  -0.17494074 -0.17494074]
   [-0.03277584 -0.1716984  -0.20106423 -0.2055249  -0.2055249 ]
   [-0.03289222 -0.17494074 -0.2055249  -0.21018799 -0.21018799]
   [-0.03289222 -0.17494074 -0.2055249  -0.21018799 -0.21018799]]]


 [[[-0.01843298 -0.03382437 -0.03482639 -0.03495781 -0.03495781]
   [-0.03382437 -0.20498621 -0.24827782 -0.25511497 -0.25511497]
   [-0.03482639 -0.24827782 -0.31475096 -0.32582095 -0.32582095]
   [-0.03495781 -0.25511497 -0.32582095 -0.33769801 -0.33769801]
   [-0.03495781 -0.25511497 -0.32582095 -0.33769801 -0.33769801]]

  [[-0.01812983 -0.03281744 -0.03375986 -0.03388334 -0.03388334]
   [-0.03281744 -0.17284597 -0.20263971 -0.20717136 -0.20717136]
   [-0.03375986 -0.20263971 -0.24484385 -0.25149064 -0.25149064]
   [-0.03388334 -0.20717136 -0.25149064 -0.25850839 -0.25850839]
   [-0.03388334 -0.20717136 -0.25149064 -0.25850839 -0.25850839]]

  [[-0.01800816 -0.03242094 -0.03334041 -0.03346083 -0.03346083]
   [-0.03242094 -0.16238633 -0.18841181 -0.19232329 -0.19232329]
   [-0.03334041 -0.18841181 -0.22437161 -0.22994071 -0.22994071]
   [-0.03346083 -0.19232329 -0.22994071 -0.23579331 -0.23579331]
   [-0.03346083 -0.19232329 -0.22994071 -0.23579331 -0.23579331]]

  [[-0.01800816 -0.03242094 -0.03334041 -0.03346083 -0.03346083]
   [-0.03242094 -0.16238633 -0.18841181 -0.19232329 -0.19232329]
   [-0.03334041 -0.18841181 -0.22437161 -0.22994071 -0.22994071]
   [-0.03346083 -0.19232329 -0.22994071 -0.23579331 -0.23579331]
   [-0.03346083 -0.19232329 -0.22994071 -0.23579331 -0.23579331]]

  [[-0.01797459 -0.03231227 -0.0332255  -0.03334509 -0.03334509]
   [-0.03231227 -0.15969626 -0.18479997 -0.18856142 -0.18856142]
   [-0.0332255  -0.18479997 -0.21926817 -0.22458381 -0.22458381]
   [-0.03334509 -0.18856142 -0.22458381 -0.23016358 -0.23016358]
   [-0.03334509 -0.18856142 -0.22458381 -0.23016358 -0.23016358]]

  [[-0.01784216 -0.03188683 -0.03277584 -0.03289222 -0.03289222]
   [-0.03188683 -0.14981729 -0.1716984  -0.17494074 -0.17494074]
   [-0.03277584 -0.1716984  -0.20106423 -0.2055249  -0.2055249 ]
   [-0.03289222 -0.17494074 -0.2055249  -0.21018799 -0.21018799]
   [-0.03289222 -0.17494074 -0.2055249  -0.21018799 -0.21018799]]]


 [[[-0.0183978  -0.0337061  -0.03470103 -0.0348315  -0.0348315 ]
   [-0.0337061  -0.20071815 -0.24204404 -0.24853767 -0.24853767]
   [-0.03470103 -0.24204404 -0.30479919 -0.3151687  -0.3151687 ]
   [-0.0348315  -0.24853767 -0.3151687  -0.32626862 -0.32626862]
   [-0.0348315  -0.24853767 -0.3151687  -0.32626862 -0.32626862]]

  [[-0.0180958  -0.0327061  -0.03364205 -0.03376466 -0.03376466]
   [-0.0327061  -0.16980145 -0.19846781 -0.20281278 -0.20281278]
   [-0.03364205 -0.19846781 -0.23877921 -0.24509656 -0.24509656]
   [-0.03376466 -0.20281278 -0.24509656 -0.25175727 -0.25175727]
   [-0.03376466 -0.20281278 -0.24509656 -0.25175727 -0.25175727]]

  [[-0.01797459 -0.03231227 -0.0332255  -0.03334509 -0.03334509]
   [-0.03231227 -0.15969626 -0.18479997 -0.18856142 -0.18856142]
   [-0.0332255  -0.18479997 -0.21926817 -0.22458381 -0.22458381]
   [-0.03334509 -0.18856142 -0.22458381 -0.23016358 -0.23016358]
   [-0.03334509 -0.18856142 -0.22458381 -0.23016358 -0.23016358]]

  [[-0.01797459 -0.03231227 -0.0332255  -0.03334509 -0.03334509]
   [-0.03231227 -0.15969626 -0.18479997 -0.18856142 -0.18856142]
   [-0.0332255  -0.18479997 -0.21926817 -0.22458381 -0.22458381]
   [-0.03334509 -0.18856142 -0.22458381 -0.23016358 -0.23016358]
   [-0.03334509 -0.18856142 -0.22458381 -0.23016358 -0.23016358]]

  [[-0.01794113 -0.03220433 -0.03311138 -0.03323015 -0.03323015]
   [-0.03220433 -0.15709387 -0.18132399 -0.18494389 -0.18494389]
   [-0.03311138 -0.18132399 -0.21439173 -0.21947083 -0.21947083]
   [-0.03323015 -0.18494389 -0.21947083 -0.22479641 -0.22479641]
   [-0.03323015 -0.18494389 -0.21947083 -0.22479641 -0.22479641]]

  [[-0.0178092  -0.03178171 -0.03266479 -0.03278037 -0.03278037]
   [-0.03178171 -0.1475246  -0.16869381 -0.17182264 -0.17182264]
   [-0.03266479 -0.16869381 -0.19695629 -0.20123462 -0.20123462]
   [-0.03278037 -0.17182264 -0.20123462 -0.20570294 -0.20570294]
   [-0.03278037 -0.17182264 -0.20123462 -0.20570294 -0.20570294]]]


 [[[-0.01825909 -0.03324343 -0.03421084 -0.03433765 -0.03433765]
   [-0.03324343 -0.18535611 -0.22005157 -0.22540572 -0.22540572]
   [-0.03421084 -0.22005157 -0.27072697 -0.27887674 -0.27887674]
   [-0.03433765 -0.22540572 -0.27887674 -0.2875324  -0.2875324 ]
   [-0.03433765 -0.22540572 -0.27887674 -0.2875324  -0.2875324 ]]

  [[-0.01796159 -0.0322703  -0.03318112 -0.0333004  -0.0333004 ]
   [-0.0322703  -0.15867623 -0.18343541 -0.18714097 -0.18714097]
   [-0.03318112 -0.18343541 -0.21734977 -0.22257169 -0.22257169]
   [-0.0333004  -0.18714097 -0.22257169 -0.22805071 -0.22805071]
   [-0.0333004  -0.18714097 -0.22257169 -0.22805071 -0.22805071]]

  [[-0.01784216 -0.03188683 -0.03277584 -0.03289222 -0.03289222]
   [-0.03188683 -0.14981729 -0.1716984  -0.17494074 -0.17494074]
   [-0.03277584 -0.1716984  -0.20106423 -0.2055249  -0.2055249 ]
   [-0.03289222 -0.17494074 -0.2055249  -0.21018799 -0.21018799]
   [-0.03289222 -0.17494074 -0.2055249  -0.21018799 -0.21018799]]

  [[-0.01784216 -0.03188683 -0.03277584 -0.03289222 -0.03289222]
   [-0.03188683 -0.14981729 -0.1716984  -0.17494074 -0.17494074]
   [-0.03277584 -0.1716984  -0.20106423 -0.2055249  -0.2055249 ]
   [-0.03289222 -0.17494074 -0.2055249  -0.21018799 -0.21018799]
   [-0.03289222 -0.17494074 -0.2055249  -0.21018799 -0.21018799]]

  [[-0.0178092  -0.03178171 -0.03266479 -0.03278037 -0.03278037]
   [-0.03178171 -0.1475246  -0.16869381 -0.17182264 -0.17182264]
   [-0.03266479 -0.16869381 -0.19695629 -0.20123462 -0.20123462]
   [-0.03278037 -0.17182264 -0.20123462 -0.20570294 -0.20570294]
   [-0.03278037 -0.17182264 -0.20123462 -0.20570294 -0.20570294]]

  [[-0.0176792  -0.03137004 -0.03223008 -0.0323426  -0.0323426 ]
   [-0.03137004 -0.1390542  -0.15770857 -0.16043987 -0.16043987]
   [-0.03223008 -0.15770857 -0.18214345 -0.18579647 -0.18579647]
   [-0.0323426  -0.16043987 -0.18579647 -0.18959902 -0.18959902]
   [-0.0323426  -0.16043987 -0.18579647 -0.18959902 -0.18959902]]]] (6, 6, 5, 5)
hf energy: -99.98340893328194
(11, 11, 11, 11)
(11, 11, 11, 11)
heading into energy calc: slice(None, 5, None) slice(5, None, None)
o, (11, 11, 11, 11) (6, 6, 5, 5) slice(None, 5, None) slice(5, None, None) (11, 11)
energy of fock terms: -59.73271868974377
energy with 2e ints: -105.17707839705513
initial energy: -105.17707839705513
    ==> CCSDT amplitude equations <==

     Iter               Energy                 |dE|                 |dT|

o, (11, 11, 11, 11) (6, 6, 5, 5) slice(None, 5, None) slice(5, None, None) (11, 11)
energy of fock terms: -59.73271868974377
energy with 2e ints: -105.17707839705513
        0      -5.322363683188       0.128694219414       1.778468685740

o, (11, 11, 11, 11) (6, 6, 5, 5) slice(None, 5, None) slice(5, None, None) (11, 11)
energy of fock terms: -59.73271868974377
energy with 2e ints: -105.17707839705513
        1      -5.321907151758       0.000456531430       0.222946299621

o, (11, 11, 11, 11) (6, 6, 5, 5) slice(None, 5, None) slice(5, None, None) (11, 11)
energy of fock terms: -59.73271868974377
energy with 2e ints: -105.17707839705513
        2      -5.323569366546       0.001662214788       0.055189557044

o, (11, 11, 11, 11) (6, 6, 5, 5) slice(None, 5, None) slice(5, None, None) (11, 11)
energy of fock terms: -59.73271868974377
energy with 2e ints: -105.17707839705513
        3      -5.324046080861       0.000476714315       0.021349246203

o, (11, 11, 11, 11) (6, 6, 5, 5) slice(None, 5, None) slice(5, None, None) (11, 11)
energy of fock terms: -59.73271868974377
energy with 2e ints: -105.17707839705513
        4      -5.324218212528       0.000172131667       0.008179492812

o, (11, 11, 11, 11) (6, 6, 5, 5) slice(None, 5, None) slice(5, None, None) (11, 11)
energy of fock terms: -59.73271868974377
energy with 2e ints: -105.17707839705513
        5      -5.324281053800       0.000062841273       0.003204942350

o, (11, 11, 11, 11) (6, 6, 5, 5) slice(None, 5, None) slice(5, None, None) (11, 11)
energy of fock terms: -59.73271868974377
energy with 2e ints: -105.17707839705513
        6      -5.324304686913       0.000023633113       0.001268869123

o, (11, 11, 11, 11) (6, 6, 5, 5) slice(None, 5, None) slice(5, None, None) (11, 11)
energy of fock terms: -59.73271868974377
energy with 2e ints: -105.17707839705513
        7      -5.324313720435       0.000009033521       0.000506110737

o, (11, 11, 11, 11) (6, 6, 5, 5) slice(None, 5, None) slice(5, None, None) (11, 11)
energy of fock terms: -59.73271868974377
energy with 2e ints: -105.17707839705513
        8      -5.324317219208       0.000003498774       0.000202870370

o, (11, 11, 11, 11) (6, 6, 5, 5) slice(None, 5, None) slice(5, None, None) (11, 11)
energy of fock terms: -59.73271868974377
energy with 2e ints: -105.17707839705513
        9      -5.324318586959       0.000001367750       0.000081603628

o, (11, 11, 11, 11) (6, 6, 5, 5) slice(None, 5, None) slice(5, None, None) (11, 11)
energy of fock terms: -59.73271868974377
energy with 2e ints: -105.17707839705513
       10      -5.324319125566       0.000000538607       0.000032905225

o, (11, 11, 11, 11) (6, 6, 5, 5) slice(None, 5, None) slice(5, None, None) (11, 11)
energy of fock terms: -59.73271868974377
energy with 2e ints: -105.17707839705513
       11      -5.324319338854       0.000000213289       0.000013291768

o, (11, 11, 11, 11) (6, 6, 5, 5) slice(None, 5, None) slice(5, None, None) (11, 11)
energy of fock terms: -59.73271868974377
energy with 2e ints: -105.17707839705513
       12      -5.324319423694       0.000000084840       0.000005375845

o, (11, 11, 11, 11) (6, 6, 5, 5) slice(None, 5, None) slice(5, None, None) (11, 11)
energy of fock terms: -59.73271868974377
energy with 2e ints: -105.17707839705513
       13      -5.324319457561       0.000000033867       0.000002176232

o, (11, 11, 11, 11) (6, 6, 5, 5) slice(None, 5, None) slice(5, None, None) (11, 11)
energy of fock terms: -59.73271868974377
energy with 2e ints: -105.17707839705513
       14      -5.324319471119       0.000000013558       0.000000881554

o, (11, 11, 11, 11) (6, 6, 5, 5) slice(None, 5, None) slice(5, None, None) (11, 11)
energy of fock terms: -59.73271868974377
energy with 2e ints: -105.17707839705513
       15      -5.324319476559       0.000000005440       0.000000357273

o, (11, 11, 11, 11) (6, 6, 5, 5) slice(None, 5, None) slice(5, None, None) (11, 11)
energy of fock terms: -59.73271868974377
energy with 2e ints: -105.17707839705513
       16      -5.324319478747       0.000000002187       0.000000144845

o, (11, 11, 11, 11) (6, 6, 5, 5) slice(None, 5, None) slice(5, None, None) (11, 11)
energy of fock terms: -59.73271868974377
energy with 2e ints: -105.17707839705513
       17      -5.324319479627       0.000000000881       0.000000058738

o, (11, 11, 11, 11) (6, 6, 5, 5) slice(None, 5, None) slice(5, None, None) (11, 11)
energy of fock terms: -59.73271868974377
energy with 2e ints: -105.17707839705513
       18      -5.324319479982       0.000000000355       0.000000023824

o, (11, 11, 11, 11) (6, 6, 5, 5) slice(None, 5, None) slice(5, None, None) (11, 11)
energy of fock terms: -59.73271868974377
energy with 2e ints: -105.17707839705513
       19      -5.324319480126       0.000000000143       0.000000009664

o, (11, 11, 11, 11) (6, 6, 5, 5) slice(None, 5, None) slice(5, None, None) (11, 11)
energy of fock terms: -59.73271868974377
energy with 2e ints: -105.17707839705513
       20      -5.324319480184       0.000000000058       0.000000003921

o, (11, 11, 11, 11) (6, 6, 5, 5) slice(None, 5, None) slice(5, None, None) (11, 11)
energy of fock terms: -59.73271868974377
energy with 2e ints: -105.17707839705513
       21      -5.324319480207       0.000000000023       0.000000001591

o, (11, 11, 11, 11) (6, 6, 5, 5) slice(None, 5, None) slice(5, None, None) (11, 11)
energy of fock terms: -59.73271868974377
energy with 2e ints: -105.17707839705513
       22      -5.324319480216       0.000000000009       0.000000000645

o, (11, 11, 11, 11) (6, 6, 5, 5) slice(None, 5, None) slice(5, None, None) (11, 11)
energy of fock terms: -59.73271868974377
energy with 2e ints: -105.17707839705513
       23      -5.324319480220       0.000000000004       0.000000000262

o, (11, 11, 11, 11) (6, 6, 5, 5) slice(None, 5, None) slice(5, None, None) (11, 11)
energy of fock terms: -59.73271868974377
energy with 2e ints: -105.17707839705513
       24      -5.324319480222       0.000000000002       0.000000000106

o, (11, 11, 11, 11) (6, 6, 5, 5) slice(None, 5, None) slice(5, None, None) (11, 11)
energy of fock terms: -59.73271868974377
energy with 2e ints: -105.17707839705513
       25      -5.324319480222       0.000000000001       0.000000000043

